LAMMPS 2005 Description - Generated by XenoView

         302  atoms
         301  bonds
         600  angles
         891  dihedrals
         400  impropers

           6  atom types
           8  bond types
          16  angle types
          14  dihedral types
          13  improper types

  -75.0000000000   75.0000000000 xlo xhi
  -25.0000000000   25.0000000000 ylo yhi
  -25.0000000000   25.0000000000 zlo zhi

Masses

  1  12.011150  c2  
  2  12.011150  c1  
  3  18.998400  f   
  4   1.007970  hc  
  5  12.011150  c   
  6  12.011150  c3 


