 Entering Gaussian System, Link 0=g03
 Initial command:
 /package/chem/g03/l1.exe /work2/u31mhl01/vTS_H-NCN.14664/Gau-5685.inp -scrdir=/work2/u31mhl01/vTS_H-NCN.14664/
 Entering Link 1 = /package/chem/g03/l1.exe PID=      5686.
  
 Copyright (c) 1988,1990,1992,1993,1995,1998,2003,2004, Gaussian, Inc.
                  All Rights Reserved.
  
 This is the Gaussian(R) 03 program.  It is based on the
 the Gaussian(R) 98 system (copyright 1998, Gaussian, Inc.),
 the Gaussian(R) 94 system (copyright 1995, Gaussian, Inc.),
 the Gaussian 92(TM) system (copyright 1992, Gaussian, Inc.),
 the Gaussian 90(TM) system (copyright 1990, Gaussian, Inc.),
 the Gaussian 88(TM) system (copyright 1988, Gaussian, Inc.),
 the Gaussian 86(TM) system (copyright 1986, Carnegie Mellon
 University), and the Gaussian 82(TM) system (copyright 1983,
 Carnegie Mellon University). Gaussian is a federally registered
 trademark of Gaussian, Inc.
  
 This software contains proprietary and confidential information,
 including trade secrets, belonging to Gaussian, Inc.
  
 This software is provided under written license and may be
 used, copied, transmitted, or stored only in accord with that
 written license.
  
 The following legend is applicable only to US Government
 contracts under FAR:
  
                    RESTRICTED RIGHTS LEGEND
  
 Use, reproduction and disclosure by the US Government is
 subject to restrictions as set forth in subparagraphs (a)
 and (c) of the Commercial Computer Software - Restricted
 Rights clause in FAR 52.227-19.
  
 Gaussian, Inc.
 340 Quinnipiac St., Bldg. 40, Wallingford CT 06492
  
  
 ---------------------------------------------------------------
 Warning -- This program may not be used in any manner that
 competes with the business of Gaussian, Inc. or will provide
 assistance to any competitor of Gaussian, Inc.  The licensee
 of this program is prohibited from giving any competitor of
 Gaussian, Inc. access to this program.  By using this program,
 the user acknowledges that Gaussian, Inc. is engaged in the
 business of creating and licensing software in the field of
 computational chemistry and represents and warrants to the
 licensee that it is not a competitor of Gaussian, Inc. and that
 it will not use this program in any manner prohibited above.
 ---------------------------------------------------------------
  

 Cite this work as:
 Gaussian 03, Revision D.02,
 M. J. Frisch, G. W. Trucks, H. B. Schlegel, G. E. Scuseria, 
 M. A. Robb, J. R. Cheeseman, J. A. Montgomery, Jr., T. Vreven, 
 K. N. Kudin, J. C. Burant, J. M. Millam, S. S. Iyengar, J. Tomasi, 
 V. Barone, B. Mennucci, M. Cossi, G. Scalmani, N. Rega, 
 G. A. Petersson, H. Nakatsuji, M. Hada, M. Ehara, K. Toyota, 
 R. Fukuda, J. Hasegawa, M. Ishida, T. Nakajima, Y. Honda, O. Kitao, 
 H. Nakai, M. Klene, X. Li, J. E. Knox, H. P. Hratchian, J. B. Cross, 
 V. Bakken, C. Adamo, J. Jaramillo, R. Gomperts, R. E. Stratmann, 
 O. Yazyev, A. J. Austin, R. Cammi, C. Pomelli, J. W. Ochterski, 
 P. Y. Ayala, K. Morokuma, G. A. Voth, P. Salvador, J. J. Dannenberg, 
 V. G. Zakrzewski, S. Dapprich, A. D. Daniels, M. C. Strain, 
 O. Farkas, D. K. Malick, A. D. Rabuck, K. Raghavachari, 
 J. B. Foresman, J. V. Ortiz, Q. Cui, A. G. Baboul, S. Clifford, 
 J. Cioslowski, B. B. Stefanov, G. Liu, A. Liashenko, P. Piskorz, 
 I. Komaromi, R. L. Martin, D. J. Fox, T. Keith, M. A. Al-Laham, 
 C. Y. Peng, A. Nanayakkara, M. Challacombe, P. M. W. Gill, 
 B. Johnson, W. Chen, M. W. Wong, C. Gonzalez, and J. A. Pople, 
 Gaussian, Inc., Wallingford CT, 2004.
 
 ******************************************
 Gaussian 03:  EM64T-G03RevD.02  1-Mar-2006
                20-Oct-2007 
 ******************************************
 %NprocLinda=1
 Will use up to    1 processors via Linda.
 %NprocShared=4
 Will use up to    4 processors via shared memory.
 %chk=vTS_H-NCN.chk
 %mem=1GB
 Default route:  MaxDisk=120GB
 ----------------------------------------------------------------------
 #b3lyp/6-311++g(3df,2p) opt=(modredundant,maxcycle=300) freq scfcyc=40
 0 nosymmetry scf=qc
 ----------------------------------------------------------------------
 1/6=300,14=-1,18=120,26=3,38=1/1,3;
 2/9=110,15=1,17=6,18=5,40=1/2;
 3/5=4,6=6,7=1216,11=2,16=1,25=1,30=1,74=-5/1,2,3;
 4//1;
 5/5=2,7=400,8=3,38=5/8;
 6/7=2,8=2,9=2,10=2,28=1/1;
 7/30=1/1,2,3,16;
 1/6=300,14=-1,18=20/3(3);
 2/9=110,15=1/2;
 6/7=2,8=2,9=2,10=2,19=2,28=1/1;
 99//99;
 2/9=110,15=1/2;
 3/5=4,6=6,7=1216,11=2,16=1,25=1,30=1,74=-5/1,2,3;
 4/5=5,16=3/1;
 5/5=2,7=400,8=3,38=5/8;
 7/30=1/1,2,3,16;
 1/6=300,14=-1,18=20/3(-5);
 2/9=110,15=1/2;
 6/7=2,8=2,9=2,10=2,19=2,28=1/1;
 99/9=1/99;
 -------------------
 Title Card Required
 -------------------
 Symbolic Z-matrix:
 Charge =  0 Multiplicity = 2
 N                    -0.04237  -1.15958   0. 
 C                     0.        0.10928   0. 
 N                    -0.08318   1.29432   0. 
 H                     0.87882  -1.59888   0. 
 
 The following ModRedundant input section has been read:
 B    1    4 1.0205 F                                                          
 Iteration  1 RMS(Cart)=  0.00000138 RMS(Int)=  0.00000000
 Iteration  2 RMS(Cart)=  0.00000000 RMS(Int)=  0.00000000
 Iteration  1 RMS(Cart)=  0.00000000 RMS(Int)=  0.00000000

 GradGradGradGradGradGradGradGradGradGradGradGradGradGradGradGradGradGrad
 Berny optimization.
 Initialization pass.
                           ----------------------------
                           !    Initial Parameters    !
                           ! (Angstroms and Degrees)  !
 --------------------------                            --------------------------
 ! Name  Definition              Value          Derivative Info.                !
 --------------------------------------------------------------------------------
 ! R1    R(1,2)                  1.2696         estimate D2E/DX2                !
 ! R2    R(1,4)                  1.0206         Frozen                          !
 ! R3    R(2,3)                  1.188          estimate D2E/DX2                !
 ! A1    A(2,1,4)              113.5837         estimate D2E/DX2                !
 ! A2    A(1,2,3)              174.0725         estimate D2E/DX2                !
 ! D1    D(4,1,2,3)            180.0            estimate D2E/DX2                !
 --------------------------------------------------------------------------------
 Trust Radius=3.00D-01 FncErr=1.00D-07 GrdErr=1.00D-06
 Number of steps in this run= 100 maximum allowed number of steps= 100.
 GradGradGradGradGradGradGradGradGradGradGradGradGradGradGradGradGradGrad

                          Input orientation:                          
 ---------------------------------------------------------------------
 Center     Atomic     Atomic              Coordinates (Angstroms)
 Number     Number      Type              X           Y           Z
 ---------------------------------------------------------------------
    1          7             0       -0.042366   -1.159578    0.000000
    2          6             0        0.000000    0.109280    0.000000
    3          7             0       -0.083182    1.294321    0.000000
    4          1             0        0.878825   -1.598885    0.000000
 ---------------------------------------------------------------------
                    Distance matrix (angstroms):
                    1          2          3          4
     1  N    0.000000
     2  C    1.269565   0.000000
     3  N    2.454238   1.187957   0.000000
     4  H    1.020580   1.920980   3.048951   0.000000
 Symmetry turned off by external request.
 Stoichiometry    CHN2(2)
 Framework group  CS[SG(CHN2)]
 Deg. of freedom     5
 Full point group                 CS
 Rotational constants (GHZ):    654.5757631     11.2167248     11.0277547
 Standard basis: 6-311++G(3df,2p) (5D, 7F)
 Integral buffers will be    131072 words long.
 Raffenetti 2 integral format.
 Two-electron integral symmetry is turned off.
   127 basis functions,   186 primitive gaussians,   145 cartesian basis functions
    11 alpha electrons       10 beta electrons
       nuclear repulsion energy        53.2778787181 Hartrees.
 NAtoms=    4 NActive=    4 NUniq=    4 SFac= 7.50D-01 NAtFMM=   80 NAOKFM=F Big=F
 One-electron integrals computed using PRISM.
 NBasis=   127 RedAO= T  NBF=   127
 NBsUse=   127 1.00D-06 NBFU=   127
 Harris functional with IExCor=  402 diagonalized for initial guess.
 ExpMin= 3.60D-02 ExpMax= 6.29D+03 ExpMxC= 9.49D+02 IAcc=3 IRadAn=         5 AccDes= 0.00D+00
 HarFok:  IExCor= 402 AccDes= 0.00D+00 IRadAn=         5 IDoV=1
 ScaDFX=  1.000000  1.000000  1.000000  1.000000
 <S**2> of initial guess= 0.7500
 Keep R1 and R2 integrals in memory in canonical form, NReq=   114217718.
 Gradient too large for Newton-Raphson -- use scaled steepest descent instead.
 Gradient too large for Newton-Raphson -- use scaled steepest descent instead.
 Gradient too large for Newton-Raphson -- use scaled steepest descent instead.
 Gradient too large for Newton-Raphson -- use scaled steepest descent instead.
 Gradient too large for Newton-Raphson -- use scaled steepest descent instead.
 Gradient too large for Newton-Raphson -- use scaled steepest descent instead.
 Gradient too large for Newton-Raphson -- use scaled steepest descent instead.
 LinEq1:  Iter=  0 NonCon=   1 RMS=2.98D-04 Max=6.29D-03
 AX will form   1 AO Fock derivatives at one time.
 LinEq1:  Iter=  1 NonCon=   1 RMS=4.74D-04 Max=1.22D-02
 LinEq1:  Iter=  2 NonCon=   1 RMS=5.93D-05 Max=1.28D-03
 LinEq1:  Iter=  3 NonCon=   1 RMS=1.08D-05 Max=2.02D-04
 LinEq1:  Iter=  4 NonCon=   1 RMS=1.89D-06 Max=2.41D-05
 LinEq1:  Iter=  5 NonCon=   1 RMS=1.60D-06 Max=2.76D-05
 LinEq1:  Iter=  6 NonCon=   1 RMS=6.78D-07 Max=1.07D-05
 LinEq1:  Iter=  7 NonCon=   1 RMS=1.61D-07 Max=2.12D-06
 LinEq1:  Iter=  8 NonCon=   1 RMS=5.50D-08 Max=5.49D-07
 LinEq1:  Iter=  9 NonCon=   1 RMS=2.53D-08 Max=5.49D-07
 LinEq1:  Iter= 10 NonCon=   1 RMS=7.75D-09 Max=1.36D-07
 LinEq1:  Iter= 11 NonCon=   0 RMS=2.62D-09 Max=3.80D-08
 Linear equations converged to 4.946D-09 4.946D-08 after  11 iterations.
 LinEq1:  Iter=  0 NonCon=   1 RMS=3.03D-06 Max=1.39D-04
 LinEq1:  Iter=  1 NonCon=   1 RMS=3.45D-06 Max=8.18D-05
 LinEq1:  Iter=  2 NonCon=   1 RMS=8.06D-07 Max=2.25D-05
 LinEq1:  Iter=  3 NonCon=   1 RMS=2.57D-07 Max=4.81D-06
 LinEq1:  Iter=  4 NonCon=   1 RMS=1.72D-07 Max=2.74D-06
 LinEq1:  Iter=  5 NonCon=   1 RMS=7.41D-08 Max=9.65D-07
 LinEq1:  Iter=  6 NonCon=   1 RMS=2.81D-08 Max=3.34D-07
 LinEq1:  Iter=  7 NonCon=   1 RMS=1.16D-08 Max=2.87D-07
 LinEq1:  Iter=  8 NonCon=   1 RMS=5.46D-09 Max=8.86D-08
 LinEq1:  Iter=  9 NonCon=   1 RMS=1.80D-09 Max=2.01D-08
 LinEq1:  Iter= 10 NonCon=   1 RMS=5.50D-10 Max=5.50D-09
 LinEq1:  Iter= 11 NonCon=   0 RMS=1.32D-10 Max=1.44D-09
 Linear equations converged to 4.900D-10 4.900D-09 after  11 iterations.
 LinEq1:  Iter=  0 NonCon=   1 RMS=8.24D-10 Max=6.11D-09
 LinEq1:  Iter=  1 NonCon=   1 RMS=5.95D-10 Max=1.08D-08
 LinEq1:  Iter=  2 NonCon=   1 RMS=3.11D-10 Max=8.99D-09
 LinEq1:  Iter=  3 NonCon=   1 RMS=1.74D-10 Max=5.45D-09
 LinEq1:  Iter=  4 NonCon=   1 RMS=6.47D-11 Max=8.63D-10
 LinEq1:  Iter=  5 NonCon=   1 RMS=2.30D-11 Max=2.81D-10
 LinEq1:  Iter=  6 NonCon=   1 RMS=8.60D-12 Max=1.50D-10
 LinEq1:  Iter=  7 NonCon=   0 RMS=4.13D-12 Max=6.28D-11
 Linear equations converged to 7.531D-12 7.531D-11 after   7 iterations.
 LinEq1:  Iter=  0 NonCon=   1 RMS=6.00D-10 Max=4.45D-09
 LinEq1:  Iter=  1 NonCon=   1 RMS=4.36D-10 Max=7.94D-09
 LinEq1:  Iter=  2 NonCon=   1 RMS=2.27D-10 Max=6.56D-09
 LinEq1:  Iter=  3 NonCon=   1 RMS=1.27D-10 Max=4.00D-09
 LinEq1:  Iter=  4 NonCon=   1 RMS=4.68D-11 Max=6.18D-10
 LinEq1:  Iter=  5 NonCon=   1 RMS=1.64D-11 Max=2.01D-10
 LinEq1:  Iter=  6 NonCon=   1 RMS=6.13D-12 Max=1.08D-10
 LinEq1:  Iter=  7 NonCon=   0 RMS=2.99D-12 Max=4.48D-11
 Linear equations converged to 5.477D-12 5.477D-11 after   7 iterations.
 SCF Done:  E(UB+HF-LYP) =  -148.186064727     a.u. after   12 cycles
            Convg  =    0.4372D-06                    72 Fock formations.
              S**2 =  0.7720                  -V/T =  2.0039
 Annihilation of the first spin contaminant:
 S**2 before annihilation     0.7720,   after     0.7501

 **********************************************************************

            Population analysis using the SCF density.

 **********************************************************************

 Alpha  occ. eigenvalues --  -14.40086 -14.36640 -10.27429  -0.99891  -0.93105
 Alpha  occ. eigenvalues --   -0.61012  -0.46110  -0.44917  -0.41647  -0.33157
 Alpha  occ. eigenvalues --   -0.33089
 Alpha virt. eigenvalues --   -0.02627   0.00772   0.03676   0.03950   0.05180
 Alpha virt. eigenvalues --    0.05396   0.07865   0.11644   0.12946   0.12947
 Alpha virt. eigenvalues --    0.16735   0.17020   0.19129   0.21200   0.21385
 Alpha virt. eigenvalues --    0.26216   0.28521   0.30178   0.34860   0.44297
 Alpha virt. eigenvalues --    0.50141   0.50416   0.50665   0.52846   0.54672
 Alpha virt. eigenvalues --    0.56429   0.56873   0.60269   0.64507   0.66210
 Alpha virt. eigenvalues --    0.71978   0.73263   0.75405   0.79065   0.79238
 Alpha virt. eigenvalues --    0.84196   0.90215   1.01617   1.02540   1.03049
 Alpha virt. eigenvalues --    1.06612   1.09581   1.18150   1.20154   1.29250
 Alpha virt. eigenvalues --    1.37338   1.44396   1.50904   1.54242   1.58354
 Alpha virt. eigenvalues --    1.77648   1.78941   1.85750   2.16706   2.25222
 Alpha virt. eigenvalues --    2.34142   2.34604   2.39029   2.40310   2.50968
 Alpha virt. eigenvalues --    2.70827   2.72174   2.72462   2.77716   2.82527
 Alpha virt. eigenvalues --    2.83197   2.86161   2.88806   2.93342   3.07838
 Alpha virt. eigenvalues --    3.19905   3.27919   3.49005   3.58329   3.60771
 Alpha virt. eigenvalues --    3.61309   3.65186   3.71974   3.74501   3.88380
 Alpha virt. eigenvalues --    3.92616   3.99889   4.10337   4.10853   4.15748
 Alpha virt. eigenvalues --    4.27531   4.33152   4.38908   4.59736   4.63059
 Alpha virt. eigenvalues --    4.83724   4.84574   4.98118   5.08572   5.75715
 Alpha virt. eigenvalues --    6.14646   6.14922   6.65787   6.92734   6.94665
 Alpha virt. eigenvalues --    7.24850   7.32775   8.05128  10.08957  10.11678
 Alpha virt. eigenvalues --   10.11873  10.24201  10.47931  10.71048  10.94420
 Alpha virt. eigenvalues --   10.97800  11.06321  11.26298  25.33411  36.03893
 Alpha virt. eigenvalues --   37.39848
  Beta  occ. eigenvalues --  -14.38827 -14.35481 -10.27754  -0.97769  -0.90060
  Beta  occ. eigenvalues --   -0.60190  -0.44005  -0.41160  -0.40029  -0.31751
  Beta virt. eigenvalues --   -0.19022  -0.02409   0.00913   0.03789   0.05274
  Beta virt. eigenvalues --    0.05291   0.07558   0.07905   0.11790   0.13144
  Beta virt. eigenvalues --    0.13807   0.16829   0.17273   0.19264   0.21557
  Beta virt. eigenvalues --    0.22405   0.26557   0.28668   0.30528   0.35001
  Beta virt. eigenvalues --    0.44460   0.50018   0.50593   0.51560   0.53089
  Beta virt. eigenvalues --    0.54826   0.57384   0.58316   0.60902   0.66254
  Beta virt. eigenvalues --    0.66664   0.72764   0.74201   0.75991   0.79781
  Beta virt. eigenvalues --    0.81353   0.84471   0.90712   1.02176   1.03079
  Beta virt. eigenvalues --    1.03410   1.07046   1.11672   1.18729   1.23154
  Beta virt. eigenvalues --    1.29460   1.37783   1.44795   1.50183   1.53671
  Beta virt. eigenvalues --    1.59498   1.78979   1.80135   1.86036   2.19966
  Beta virt. eigenvalues --    2.28168   2.36083   2.37240   2.40972   2.42587
  Beta virt. eigenvalues --    2.54081   2.70726   2.71216   2.71727   2.77708
  Beta virt. eigenvalues --    2.82439   2.85604   2.87540   2.90924   2.94264
  Beta virt. eigenvalues --    3.08445   3.20513   3.28514   3.51246   3.60068
  Beta virt. eigenvalues --    3.63478   3.63981   3.68669   3.74761   3.76464
  Beta virt. eigenvalues --    3.90185   3.95283   4.04259   4.11198   4.16095
  Beta virt. eigenvalues --    4.16761   4.28494   4.34791   4.40392   4.61397
  Beta virt. eigenvalues --    4.64039   4.85067   4.86294   4.98584   5.09102
  Beta virt. eigenvalues --    5.76519   6.15288   6.17082   6.66573   6.91371
  Beta virt. eigenvalues --    6.93321   7.24048   7.32308   8.05096  10.14344
  Beta virt. eigenvalues --   10.16837  10.17233  10.29162  10.53017  10.72894
  Beta virt. eigenvalues --   10.96455  11.02552  11.08551  11.27054  25.33132
  Beta virt. eigenvalues --   36.05172  37.41104
          Condensed to atoms (all electrons):
              1          2          3          4
     1  N    7.541797  -0.045428  -0.143716   0.289870
     2  C   -0.045428   4.856682   0.037616  -0.030086
     3  N   -0.143716   0.037616   7.885687  -0.003842
     4  H    0.289870  -0.030086  -0.003842   0.507006
 Mulliken atomic charges:
              1
     1  N   -0.642523
     2  C    1.181216
     3  N   -0.775745
     4  H    0.237052
 Sum of Mulliken charges=   0.00000
 Atomic charges with hydrogens summed into heavy atoms:
              1
     1  N   -0.405471
     2  C    1.181216
     3  N   -0.775745
     4  H    0.000000
 Sum of Mulliken charges=   0.00000
          Atomic-Atomic Spin Densities.
              1          2          3          4
     1  N    0.759703  -0.068599  -0.037638   0.006883
     2  C   -0.068599  -0.183347  -0.010941   0.002823
     3  N   -0.037638  -0.010941   0.669327  -0.000379
     4  H    0.006883   0.002823  -0.000379  -0.029981
 Mulliken atomic spin densities:
              1
     1  N    0.660350
     2  C   -0.260064
     3  N    0.620369
     4  H   -0.020655
 Sum of Mulliken spin densities=   1.00000
 Electronic spatial extent (au):  <R**2>=   126.8502
 Charge=     0.0000 electrons
 Dipole moment (field-independent basis, Debye):
    X=     1.5899    Y=    -2.2074    Z=     0.0000  Tot=     2.7203
 Quadrupole moment (field-independent basis, Debye-Ang):
   XX=   -16.1695   YY=   -19.6310   ZZ=   -16.6556
   XY=    -2.6561   XZ=     0.0000   YZ=     0.0000
 Traceless Quadrupole moment (field-independent basis, Debye-Ang):
   XX=     1.3159   YY=    -2.1456   ZZ=     0.8297
   XY=    -2.6561   XZ=     0.0000   YZ=     0.0000
 Octapole moment (field-independent basis, Debye-Ang**2):
  XXX=     2.2242  YYY=    -9.8499  ZZZ=     0.0000  XYY=     5.2936
  XXY=    -2.7537  XXZ=     0.0000  XZZ=     0.3065  YZZ=    -0.3496
  YYZ=     0.0000  XYZ=     0.0000
 Hexadecapole moment (field-independent basis, Debye-Ang**3):
 XXXX=   -18.9100 YYYY=  -138.4035 ZZZZ=   -16.3435 XXXY=     0.4988
 XXXZ=     0.0000 YYYX=    -4.8407 YYYZ=     0.0000 ZZZX=     0.0000
 ZZZY=     0.0000 XXYY=   -23.4937 XXZZ=    -6.0872 YYZZ=   -24.9465
 XXYZ=     0.0000 YYXZ=     0.0000 ZZXY=     0.7873
 N-N= 5.327787871807D+01 E-N=-4.525312410741D+02  KE= 1.476044042814D+02
                          Isotropic Fermi Contact Couplings
        Atom                 a.u.       MegaHertz       Gauss      10(-4) cm-1
     1  N(14)              0.05325      17.20669       6.13977       5.73953
     2  C(13)             -0.04840     -54.40937     -19.41462     -18.14901
     3  N(14)              0.02642       8.53673       3.04612       2.84754
     4  H(1)              -0.00915     -40.88041     -14.58715     -13.63624
 --------------------------------------------------------
       Center         ----  Spin Dipole Couplings  ----
                      3XX-RR        3YY-RR        3ZZ-RR
 --------------------------------------------------------
     1   Atom       -0.732162     -0.729260      1.461422
     2   Atom       -0.027108      0.204425     -0.177317
     3   Atom       -0.592261     -0.691900      1.284161
     4   Atom        0.045138     -0.035721     -0.009418
 --------------------------------------------------------
                        XY            XZ            YZ
 --------------------------------------------------------
     1   Atom       -0.008112      0.000000      0.000000
     2   Atom       -0.007138      0.000000      0.000000
     3   Atom        0.005824      0.000000      0.000000
     4   Atom       -0.054744      0.000000      0.000000
 --------------------------------------------------------


 ---------------------------------------------------------------------------------
              Anisotropic Spin Dipole Couplings in Principal Axis System
 ---------------------------------------------------------------------------------

       Atom             a.u.   MegaHertz   Gauss  10(-4) cm-1        Axes

              Baa    -0.7390   -28.500   -10.169    -9.506  0.7668  0.6418  0.0000
     1 N(14)  Bbb    -0.7225   -27.864    -9.943    -9.294 -0.6418  0.7668  0.0000
              Bcc     1.4614    56.364    20.112    18.801  0.0000  0.0000  1.0000
 
              Baa    -0.1773   -23.794    -8.490    -7.937  0.0000  0.0000  1.0000
     2 C(13)  Bbb    -0.0273    -3.667    -1.309    -1.223  0.9995  0.0308  0.0000
              Bcc     0.2046    27.461     9.799     9.160 -0.0308  0.9995  0.0000
 
              Baa    -0.6922   -26.698    -9.527    -8.906 -0.0582  0.9983  0.0000
     3 N(14)  Bbb    -0.5919   -22.829    -8.146    -7.615  0.9983  0.0582  0.0000
              Bcc     1.2842    49.527    17.673    16.521  0.0000  0.0000  1.0000
 
              Baa    -0.0633   -33.799   -12.060   -11.274  0.4505  0.8928  0.0000
     4 H(1)   Bbb    -0.0094    -5.025    -1.793    -1.676  0.0000  0.0000  1.0000
              Bcc     0.0728    38.823    13.853    12.950  0.8928 -0.4505  0.0000
 

 ---------------------------------------------------------------------------------

 -------------------------------------------------------------------
 Center     Atomic                   Forces (Hartrees/Bohr)
 Number     Number              X              Y              Z
 -------------------------------------------------------------------
    1          7           0.000003607    0.000025947    0.000000000
    2          6          -0.000008920   -0.000023499    0.000000000
    3          7           0.000004230   -0.000001543    0.000000000
    4          1           0.000001083   -0.000000905    0.000000000
 -------------------------------------------------------------------
 Cartesian Forces:  Max     0.000025947 RMS     0.000010568

 GradGradGradGradGradGradGradGradGradGradGradGradGradGradGradGradGradGrad
 Berny optimization.
 Internal  Forces:  Max     0.000025217 RMS     0.000010975
 Search for a local minimum.
 Step number   1 out of a maximum of 100
 All quantities printed in internal units (Hartrees-Bohrs-Radians)
 Second derivative matrix not updated -- first step.
 The second derivative matrix:
                          R1        R2        R3        A1        A2
           R1           0.76407
           R2           0.00000   0.44246
           R3           0.00000   0.00000   1.11115
           A1           0.00000   0.00000   0.00000   0.16000
           A2           0.00000   0.00000   0.00000   0.00000   0.25000
           D1           0.00000   0.00000   0.00000   0.00000   0.00000
                          D1
           D1           0.03417
     Eigenvalues ---    0.03417   0.16000   0.25000   0.76407   1.11115
     Eigenvalues --- 1000.00000
 RFO step:  Lambda= 0.00000000D+00.
 Linear search not attempted -- first point.
 Iteration  1 RMS(Cart)=  0.00002275 RMS(Int)=  0.00000000
 Iteration  2 RMS(Cart)=  0.00000000 RMS(Int)=  0.00000000
 Iteration  1 RMS(Cart)=  0.00000000 RMS(Int)=  0.00000000
 Variable       Old X    -DE/DX   Delta X   Delta X   Delta X     New X
                                 (Linear)    (Quad)   (Total)
    R1        2.39913  -0.00003   0.00000  -0.00003  -0.00003   2.39910
    R2        1.92862   0.00000   0.00000   0.00000   0.00000   1.92862
    R3        2.24491   0.00000   0.00000   0.00000   0.00000   2.24491
    A1        1.98241   0.00000   0.00000   0.00000   0.00000   1.98241
    A2        3.03814   0.00001   0.00000   0.00004   0.00004   3.03817
    D1        3.14159   0.00000   0.00000   0.00000   0.00000   3.14159
         Item               Value     Threshold  Converged?
 Maximum Force            0.000025     0.000450     YES
 RMS     Force            0.000012     0.000300     YES
 Maximum Displacement     0.000030     0.001800     YES
 RMS     Displacement     0.000023     0.001200     YES
 Predicted change in Energy=-5.807124D-10
 Optimization completed.
    -- Stationary point found.
                           ----------------------------
                           !   Optimized Parameters   !
                           ! (Angstroms and Degrees)  !
 --------------------------                            --------------------------
 ! Name  Definition              Value          Derivative Info.                !
 --------------------------------------------------------------------------------
 ! R1    R(1,2)                  1.2696         -DE/DX =    0.0                 !
 ! R2    R(1,4)                  1.0206         -DE/DX =    0.0                 !
 ! R3    R(2,3)                  1.188          -DE/DX =    0.0                 !
 ! A1    A(2,1,4)              113.5837         -DE/DX =    0.0                 !
 ! A2    A(1,2,3)              174.0725         -DE/DX =    0.0                 !
 ! D1    D(4,1,2,3)            180.0            -DE/DX =    0.0                 !
 --------------------------------------------------------------------------------
 GradGradGradGradGradGradGradGradGradGradGradGradGradGradGradGradGradGrad

                          Input orientation:                          
 ---------------------------------------------------------------------
 Center     Atomic     Atomic              Coordinates (Angstroms)
 Number     Number      Type              X           Y           Z
 ---------------------------------------------------------------------
    1          7             0       -0.042366   -1.159578    0.000000
    2          6             0        0.000000    0.109280    0.000000
    3          7             0       -0.083182    1.294321    0.000000
    4          1             0        0.878825   -1.598885    0.000000
 ---------------------------------------------------------------------
                    Distance matrix (angstroms):
                    1          2          3          4
     1  N    0.000000
     2  C    1.269565   0.000000
     3  N    2.454238   1.187957   0.000000
     4  H    1.020580   1.920980   3.048951   0.000000
 Symmetry turned off by external request.
 Stoichiometry    CHN2(2)
 Framework group  CS[SG(CHN2)]
 Deg. of freedom     5
 Full point group                 CS
 Rotational constants (GHZ):    654.5757631     11.2167248     11.0277547

 **********************************************************************

            Population analysis using the SCF density.

 **********************************************************************

 Alpha  occ. eigenvalues --  -14.40086 -14.36640 -10.27429  -0.99891  -0.93105
 Alpha  occ. eigenvalues --   -0.61012  -0.46110  -0.44917  -0.41647  -0.33157
 Alpha  occ. eigenvalues --   -0.33089
 Alpha virt. eigenvalues --   -0.02627   0.00772   0.03676   0.03950   0.05180
 Alpha virt. eigenvalues --    0.05396   0.07865   0.11644   0.12946   0.12947
 Alpha virt. eigenvalues --    0.16735   0.17020   0.19129   0.21200   0.21385
 Alpha virt. eigenvalues --    0.26216   0.28521   0.30178   0.34860   0.44297
 Alpha virt. eigenvalues --    0.50141   0.50416   0.50665   0.52846   0.54672
 Alpha virt. eigenvalues --    0.56429   0.56873   0.60269   0.64507   0.66210
 Alpha virt. eigenvalues --    0.71978   0.73263   0.75405   0.79065   0.79238
 Alpha virt. eigenvalues --    0.84196   0.90215   1.01617   1.02540   1.03049
 Alpha virt. eigenvalues --    1.06612   1.09581   1.18150   1.20154   1.29250
 Alpha virt. eigenvalues --    1.37338   1.44396   1.50904   1.54242   1.58354
 Alpha virt. eigenvalues --    1.77648   1.78941   1.85750   2.16706   2.25222
 Alpha virt. eigenvalues --    2.34142   2.34604   2.39029   2.40310   2.50968
 Alpha virt. eigenvalues --    2.70827   2.72174   2.72462   2.77716   2.82527
 Alpha virt. eigenvalues --    2.83197   2.86161   2.88806   2.93342   3.07838
 Alpha virt. eigenvalues --    3.19905   3.27919   3.49005   3.58329   3.60771
 Alpha virt. eigenvalues --    3.61309   3.65186   3.71974   3.74501   3.88380
 Alpha virt. eigenvalues --    3.92616   3.99889   4.10337   4.10853   4.15748
 Alpha virt. eigenvalues --    4.27531   4.33152   4.38908   4.59736   4.63059
 Alpha virt. eigenvalues --    4.83724   4.84574   4.98118   5.08572   5.75715
 Alpha virt. eigenvalues --    6.14646   6.14922   6.65787   6.92734   6.94665
 Alpha virt. eigenvalues --    7.24850   7.32775   8.05128  10.08957  10.11678
 Alpha virt. eigenvalues --   10.11873  10.24201  10.47931  10.71048  10.94420
 Alpha virt. eigenvalues --   10.97800  11.06321  11.26298  25.33411  36.03893
 Alpha virt. eigenvalues --   37.39848
  Beta  occ. eigenvalues --  -14.38827 -14.35481 -10.27754  -0.97769  -0.90060
  Beta  occ. eigenvalues --   -0.60190  -0.44005  -0.41160  -0.40029  -0.31751
  Beta virt. eigenvalues --   -0.19022  -0.02409   0.00913   0.03789   0.05274
  Beta virt. eigenvalues --    0.05291   0.07558   0.07905   0.11790   0.13144
  Beta virt. eigenvalues --    0.13807   0.16829   0.17273   0.19264   0.21557
  Beta virt. eigenvalues --    0.22405   0.26557   0.28668   0.30528   0.35001
  Beta virt. eigenvalues --    0.44460   0.50018   0.50593   0.51560   0.53089
  Beta virt. eigenvalues --    0.54826   0.57384   0.58316   0.60902   0.66254
  Beta virt. eigenvalues --    0.66664   0.72764   0.74201   0.75991   0.79781
  Beta virt. eigenvalues --    0.81353   0.84471   0.90712   1.02176   1.03079
  Beta virt. eigenvalues --    1.03410   1.07046   1.11672   1.18729   1.23154
  Beta virt. eigenvalues --    1.29460   1.37783   1.44795   1.50183   1.53671
  Beta virt. eigenvalues --    1.59498   1.78979   1.80135   1.86036   2.19966
  Beta virt. eigenvalues --    2.28168   2.36083   2.37240   2.40972   2.42587
  Beta virt. eigenvalues --    2.54081   2.70726   2.71216   2.71727   2.77708
  Beta virt. eigenvalues --    2.82439   2.85604   2.87540   2.90924   2.94264
  Beta virt. eigenvalues --    3.08445   3.20513   3.28514   3.51246   3.60068
  Beta virt. eigenvalues --    3.63478   3.63981   3.68669   3.74761   3.76464
  Beta virt. eigenvalues --    3.90185   3.95283   4.04259   4.11198   4.16095
  Beta virt. eigenvalues --    4.16761   4.28494   4.34791   4.40392   4.61397
  Beta virt. eigenvalues --    4.64039   4.85067   4.86294   4.98584   5.09102
  Beta virt. eigenvalues --    5.76519   6.15288   6.17082   6.66573   6.91371
  Beta virt. eigenvalues --    6.93321   7.24048   7.32308   8.05096  10.14344
  Beta virt. eigenvalues --   10.16837  10.17233  10.29162  10.53017  10.72894
  Beta virt. eigenvalues --   10.96455  11.02552  11.08551  11.27054  25.33132
  Beta virt. eigenvalues --   36.05172  37.41104
          Condensed to atoms (all electrons):
              1          2          3          4
     1  N    7.541797  -0.045428  -0.143716   0.289870
     2  C   -0.045428   4.856682   0.037616  -0.030086
     3  N   -0.143716   0.037616   7.885687  -0.003842
     4  H    0.289870  -0.030086  -0.003842   0.507006
 Mulliken atomic charges:
              1
     1  N   -0.642523
     2  C    1.181216
     3  N   -0.775745
     4  H    0.237052
 Sum of Mulliken charges=   0.00000
 Atomic charges with hydrogens summed into heavy atoms:
              1
     1  N   -0.405471
     2  C    1.181216
     3  N   -0.775745
     4  H    0.000000
 Sum of Mulliken charges=   0.00000
          Atomic-Atomic Spin Densities.
              1          2          3          4
     1  N    0.759703  -0.068599  -0.037638   0.006883
     2  C   -0.068599  -0.183347  -0.010941   0.002823
     3  N   -0.037638  -0.010941   0.669327  -0.000379
     4  H    0.006883   0.002823  -0.000379  -0.029981
 Mulliken atomic spin densities:
              1
     1  N    0.660350
     2  C   -0.260064
     3  N    0.620369
     4  H   -0.020655
 Sum of Mulliken spin densities=   1.00000
 Electronic spatial extent (au):  <R**2>=   126.8502
 Charge=     0.0000 electrons
 Dipole moment (field-independent basis, Debye):
    X=     1.5899    Y=    -2.2074    Z=     0.0000  Tot=     2.7203
 Quadrupole moment (field-independent basis, Debye-Ang):
   XX=   -16.1695   YY=   -19.6310   ZZ=   -16.6556
   XY=    -2.6561   XZ=     0.0000   YZ=     0.0000
 Traceless Quadrupole moment (field-independent basis, Debye-Ang):
   XX=     1.3159   YY=    -2.1456   ZZ=     0.8297
   XY=    -2.6561   XZ=     0.0000   YZ=     0.0000
 Octapole moment (field-independent basis, Debye-Ang**2):
  XXX=     2.2242  YYY=    -9.8499  ZZZ=     0.0000  XYY=     5.2936
  XXY=    -2.7537  XXZ=     0.0000  XZZ=     0.3065  YZZ=    -0.3496
  YYZ=     0.0000  XYZ=     0.0000
 Hexadecapole moment (field-independent basis, Debye-Ang**3):
 XXXX=   -18.9100 YYYY=  -138.4035 ZZZZ=   -16.3435 XXXY=     0.4988
 XXXZ=     0.0000 YYYX=    -4.8407 YYYZ=     0.0000 ZZZX=     0.0000
 ZZZY=     0.0000 XXYY=   -23.4937 XXZZ=    -6.0872 YYZZ=   -24.9465
 XXYZ=     0.0000 YYXZ=     0.0000 ZZXY=     0.7873
 N-N= 5.327787871807D+01 E-N=-4.525312410741D+02  KE= 1.476044042814D+02
                          Isotropic Fermi Contact Couplings
        Atom                 a.u.       MegaHertz       Gauss      10(-4) cm-1
     1  N(14)              0.05325      17.20669       6.13977       5.73953
     2  C(13)             -0.04840     -54.40937     -19.41462     -18.14901
     3  N(14)              0.02642       8.53673       3.04612       2.84754
     4  H(1)              -0.00915     -40.88041     -14.58715     -13.63624
 --------------------------------------------------------
       Center         ----  Spin Dipole Couplings  ----
                      3XX-RR        3YY-RR        3ZZ-RR
 --------------------------------------------------------
     1   Atom       -0.732162     -0.729260      1.461422
     2   Atom       -0.027108      0.204425     -0.177317
     3   Atom       -0.592261     -0.691900      1.284161
     4   Atom        0.045138     -0.035721     -0.009418
 --------------------------------------------------------
                        XY            XZ            YZ
 --------------------------------------------------------
     1   Atom       -0.008112      0.000000      0.000000
     2   Atom       -0.007138      0.000000      0.000000
     3   Atom        0.005824      0.000000      0.000000
     4   Atom       -0.054744      0.000000      0.000000
 --------------------------------------------------------


 ---------------------------------------------------------------------------------
              Anisotropic Spin Dipole Couplings in Principal Axis System
 ---------------------------------------------------------------------------------

       Atom             a.u.   MegaHertz   Gauss  10(-4) cm-1        Axes

              Baa    -0.7390   -28.500   -10.169    -9.506  0.7668  0.6418  0.0000
     1 N(14)  Bbb    -0.7225   -27.864    -9.943    -9.294 -0.6418  0.7668  0.0000
              Bcc     1.4614    56.364    20.112    18.801  0.0000  0.0000  1.0000
 
              Baa    -0.1773   -23.794    -8.490    -7.937  0.0000  0.0000  1.0000
     2 C(13)  Bbb    -0.0273    -3.667    -1.309    -1.223  0.9995  0.0308  0.0000
              Bcc     0.2046    27.461     9.799     9.160 -0.0308  0.9995  0.0000
 
              Baa    -0.6922   -26.698    -9.527    -8.906 -0.0582  0.9983  0.0000
     3 N(14)  Bbb    -0.5919   -22.829    -8.146    -7.615  0.9983  0.0582  0.0000
              Bcc     1.2842    49.527    17.673    16.521  0.0000  0.0000  1.0000
 
              Baa    -0.0633   -33.799   -12.060   -11.274  0.4505  0.8928  0.0000
     4 H(1)   Bbb    -0.0094    -5.025    -1.793    -1.676  0.0000  0.0000  1.0000
              Bcc     0.0728    38.823    13.853    12.950  0.8928 -0.4505  0.0000
 

 ---------------------------------------------------------------------------------

 1\1\GINC-IRIS087\FOpt\UB3LYP\6-311++G(3df,2p)\C1H1N2(2)\U31MHL01\20-Oc
 t-2007\0\\#b3lyp/6-311++g(3df,2p) opt=(modredundant,maxcycle=300) freq
  scfcyc=400 nosymmetry scf=qc\\Title Card Required\\0,2\N,-0.042365778
 2,-1.1595776817,0.\C,-0.0000003616,0.1092803044,0.\N,-0.0831819725,1.2
 943213317,0.\H,0.8788251122,-1.5988849544,0.\\Version=EM64T-G03RevD.02
 \HF=-148.1860647\S2=0.771969\S2-1=0.\S2A=0.75014\RMSD=0.000e+00\RMSF=1
 .057e-05\Thermal=0.\Dipole=0.6254977,-0.8684385,0.\PG=CS [SG(C1H1N2)]\
 \@


 ASKING DUMB QUESTIONS IS EASIER THAN CORECTING DUMB MISTAKES.
 Job cpu time:  0 days  0 hours  1 minutes  5.1 seconds.
 File lengths (MBytes):  RWF=     28 Int=      0 D2E=      0 Chk=      7 Scr=      1
 Normal termination of Gaussian 03 at Sat Oct 20 03:47:17 2007.
 Link1:  Proceeding to internal job step number  2.
 ----------------------------------------------------------------------
 #N Geom=AllCheck Guess=Read SCRF=Check GenChk UB3LYP/6-311++G(3df,2p) 
 Freq
 ----------------------------------------------------------------------
 1/6=300,10=4,29=7,30=1,38=1,40=1,46=1/1,3;
 2/15=1,40=1/2;
 3/5=4,6=6,7=1216,11=2,16=1,25=1,30=1,70=2,71=2,74=-5/1,2,3;
 4/5=1,7=2/1;
 5/5=2,7=400,8=3,38=6/8;
 8/6=4,10=90,11=11,27=16106127360/1;
 11/6=1,8=1,9=11,15=111,16=1,31=1/1,2,10;
 10/6=1,31=1/2;
 6/7=2,8=2,9=2,10=2,18=1,28=1/1;
 7/8=1,10=1,25=1,30=1/1,2,3,16;
 1/6=300,10=4,30=1,46=1/3;
 99//99;
 -------------------
 Title Card Required
 -------------------
 Redundant internal coordinates taken from checkpoint file:
 vTS_H-NCN.chk
 Charge =  0 Multiplicity = 2
 N,0,-0.0423657782,-1.1595776817,0.
 C,0,-0.0000003616,0.1092803044,0.
 N,0,-0.0831819725,1.2943213317,0.
 H,0,0.8788251122,-1.5988849544,0.
 Recover connectivity data from disk.

 GradGradGradGradGradGradGradGradGradGradGradGradGradGradGradGradGradGrad
 Berny optimization.
 Initialization pass.
                           ----------------------------
                           !    Initial Parameters    !
                           ! (Angstroms and Degrees)  !
 --------------------------                            --------------------------
 ! Name  Definition              Value          Derivative Info.                !
 --------------------------------------------------------------------------------
 ! R1    R(1,2)                  1.2696         calculate D2E/DX2 analytically  !
 ! R2    R(1,4)                  1.0206         frozen, calculate D2E/DX2 analyt!
 ! R3    R(2,3)                  1.188          calculate D2E/DX2 analytically  !
 ! A1    A(2,1,4)              113.5837         calculate D2E/DX2 analytically  !
 ! A2    A(1,2,3)              174.0725         calculate D2E/DX2 analytically  !
 ! D1    D(4,1,2,3)            180.0            calculate D2E/DX2 analytically  !
 --------------------------------------------------------------------------------
 Trust Radius=3.00D-01 FncErr=1.00D-07 GrdErr=1.00D-07
 Number of steps in this run=   2 maximum allowed number of steps=   2.
 GradGradGradGradGradGradGradGradGradGradGradGradGradGradGradGradGradGrad

                          Input orientation:                          
 ---------------------------------------------------------------------
 Center     Atomic     Atomic              Coordinates (Angstroms)
 Number     Number      Type              X           Y           Z
 ---------------------------------------------------------------------
    1          7             0       -0.042366   -1.159578    0.000000
    2          6             0        0.000000    0.109280    0.000000
    3          7             0       -0.083182    1.294321    0.000000
    4          1             0        0.878825   -1.598885    0.000000
 ---------------------------------------------------------------------
                    Distance matrix (angstroms):
                    1          2          3          4
     1  N    0.000000
     2  C    1.269565   0.000000
     3  N    2.454238   1.187957   0.000000
     4  H    1.020580   1.920980   3.048951   0.000000
 Symmetry turned off by external request.
 Stoichiometry    CHN2(2)
 Framework group  CS[SG(CHN2)]
 Deg. of freedom     5
 Full point group                 CS
 Rotational constants (GHZ):    654.5757631     11.2167248     11.0277547
 Standard basis: 6-311++G(3df,2p) (5D, 7F)
 Integral buffers will be    131072 words long.
 Raffenetti 2 integral format.
 Two-electron integral symmetry is turned off.
   127 basis functions,   186 primitive gaussians,   145 cartesian basis functions
    11 alpha electrons       10 beta electrons
       nuclear repulsion energy        53.2778787181 Hartrees.
 NAtoms=    4 NActive=    4 NUniq=    4 SFac= 7.50D-01 NAtFMM=   80 NAOKFM=F Big=F
 One-electron integrals computed using PRISM.
 NBasis=   127 RedAO= T  NBF=   127
 NBsUse=   127 1.00D-06 NBFU=   127
 Initial guess read from the checkpoint file:
 vTS_H-NCN.chk
 <S**2> of initial guess= 0.7720
 Keep R1 and R2 integrals in memory in canonical form, NReq=   114217718.
 SCF Done:  E(UB+HF-LYP) =  -148.186064727     a.u. after    1 cycles
            Convg  =    0.4372D-06                     1 Fock formations.
              S**2 =  0.7720                  -V/T =  2.0039
 Annihilation of the first spin contaminant:
 S**2 before annihilation     0.7720,   after     0.7501
 Range of M.O.s used for correlation:     1   127
 NBasis=   127 NAE=    11 NBE=    10 NFC=     0 NFV=     0
 NROrb=    127 NOA=    11 NOB=    10 NVA=   116 NVB=   117

 **** Warning!!: The largest alpha MO coefficient is  0.34894105D+02


 **** Warning!!: The largest beta MO coefficient is  0.34560753D+02

 Symmetrizing basis deriv contribution to polar:
 IMax=3 JMax=2 DiffMx= 0.00D+00
 G2DrvN: will do    5 centers at a time, making    1 passes doing MaxLOS=3.
 FoFDir/FoFCou used for L=0 through L=3.
 DoAtom=TTTT
          Differentiating once with respect to electric field.
                with respect to dipole field.
          Differentiating once with respect to nuclear coordinates.
          Store integrals in memory, NReq=   113994555.
          There are  15 degrees of freedom in the 1st order CPHF.
    13 vectors were produced by pass  0.
 AX will form  13 AO Fock derivatives at one time.
    12 vectors were produced by pass  1.
    12 vectors were produced by pass  2.
    12 vectors were produced by pass  3.
    12 vectors were produced by pass  4.
    12 vectors were produced by pass  5.
    12 vectors were produced by pass  6.
     8 vectors were produced by pass  7.
     3 vectors were produced by pass  8.
     1 vectors were produced by pass  9.
 Inv2:  IOpt= 1 Iter= 1 AM= 1.98D-15 Conv= 1.00D-12.
 Inverted reduced A of dimension   97 with in-core refinement.
 Isotropic polarizability for W=    0.000000       26.69 Bohr**3.
 End of Minotr Frequency-dependent properties file   721 does not exist.

 **********************************************************************

            Population analysis using the SCF density.

 **********************************************************************

 Alpha  occ. eigenvalues --  -14.40086 -14.36640 -10.27429  -0.99891  -0.93105
 Alpha  occ. eigenvalues --   -0.61012  -0.46110  -0.44917  -0.41647  -0.33157
 Alpha  occ. eigenvalues --   -0.33089
 Alpha virt. eigenvalues --   -0.02627   0.00772   0.03676   0.03950   0.05180
 Alpha virt. eigenvalues --    0.05396   0.07865   0.11644   0.12946   0.12947
 Alpha virt. eigenvalues --    0.16735   0.17020   0.19129   0.21200   0.21385
 Alpha virt. eigenvalues --    0.26216   0.28521   0.30178   0.34860   0.44297
 Alpha virt. eigenvalues --    0.50141   0.50416   0.50665   0.52846   0.54672
 Alpha virt. eigenvalues --    0.56429   0.56873   0.60269   0.64507   0.66210
 Alpha virt. eigenvalues --    0.71978   0.73263   0.75405   0.79065   0.79238
 Alpha virt. eigenvalues --    0.84196   0.90215   1.01617   1.02540   1.03049
 Alpha virt. eigenvalues --    1.06612   1.09581   1.18150   1.20154   1.29250
 Alpha virt. eigenvalues --    1.37338   1.44396   1.50904   1.54242   1.58354
 Alpha virt. eigenvalues --    1.77648   1.78941   1.85750   2.16706   2.25222
 Alpha virt. eigenvalues --    2.34142   2.34604   2.39029   2.40310   2.50968
 Alpha virt. eigenvalues --    2.70827   2.72174   2.72462   2.77716   2.82527
 Alpha virt. eigenvalues --    2.83197   2.86161   2.88806   2.93342   3.07838
 Alpha virt. eigenvalues --    3.19905   3.27919   3.49005   3.58329   3.60771
 Alpha virt. eigenvalues --    3.61309   3.65186   3.71974   3.74501   3.88380
 Alpha virt. eigenvalues --    3.92616   3.99889   4.10337   4.10853   4.15748
 Alpha virt. eigenvalues --    4.27531   4.33152   4.38908   4.59736   4.63059
 Alpha virt. eigenvalues --    4.83724   4.84574   4.98118   5.08572   5.75715
 Alpha virt. eigenvalues --    6.14646   6.14922   6.65787   6.92734   6.94665
 Alpha virt. eigenvalues --    7.24850   7.32775   8.05128  10.08957  10.11678
 Alpha virt. eigenvalues --   10.11873  10.24201  10.47931  10.71048  10.94420
 Alpha virt. eigenvalues --   10.97800  11.06321  11.26298  25.33411  36.03893
 Alpha virt. eigenvalues --   37.39848
  Beta  occ. eigenvalues --  -14.38827 -14.35481 -10.27754  -0.97769  -0.90060
  Beta  occ. eigenvalues --   -0.60190  -0.44005  -0.41160  -0.40029  -0.31751
  Beta virt. eigenvalues --   -0.19022  -0.02409   0.00913   0.03789   0.05274
  Beta virt. eigenvalues --    0.05291   0.07558   0.07905   0.11790   0.13144
  Beta virt. eigenvalues --    0.13807   0.16829   0.17273   0.19264   0.21557
  Beta virt. eigenvalues --    0.22405   0.26557   0.28668   0.30528   0.35001
  Beta virt. eigenvalues --    0.44460   0.50018   0.50593   0.51560   0.53089
  Beta virt. eigenvalues --    0.54826   0.57384   0.58316   0.60902   0.66254
  Beta virt. eigenvalues --    0.66664   0.72764   0.74201   0.75991   0.79781
  Beta virt. eigenvalues --    0.81353   0.84471   0.90712   1.02176   1.03079
  Beta virt. eigenvalues --    1.03410   1.07046   1.11672   1.18729   1.23154
  Beta virt. eigenvalues --    1.29460   1.37783   1.44795   1.50183   1.53671
  Beta virt. eigenvalues --    1.59498   1.78979   1.80135   1.86036   2.19966
  Beta virt. eigenvalues --    2.28168   2.36083   2.37240   2.40972   2.42587
  Beta virt. eigenvalues --    2.54081   2.70726   2.71216   2.71727   2.77708
  Beta virt. eigenvalues --    2.82439   2.85604   2.87540   2.90924   2.94264
  Beta virt. eigenvalues --    3.08445   3.20513   3.28514   3.51246   3.60068
  Beta virt. eigenvalues --    3.63478   3.63981   3.68669   3.74761   3.76464
  Beta virt. eigenvalues --    3.90185   3.95283   4.04259   4.11198   4.16095
  Beta virt. eigenvalues --    4.16761   4.28494   4.34791   4.40392   4.61397
  Beta virt. eigenvalues --    4.64039   4.85067   4.86294   4.98584   5.09102
  Beta virt. eigenvalues --    5.76519   6.15288   6.17082   6.66573   6.91371
  Beta virt. eigenvalues --    6.93321   7.24048   7.32308   8.05096  10.14344
  Beta virt. eigenvalues --   10.16837  10.17233  10.29162  10.53017  10.72894
  Beta virt. eigenvalues --   10.96455  11.02552  11.08551  11.27054  25.33132
  Beta virt. eigenvalues --   36.05172  37.41104
          Condensed to atoms (all electrons):
              1          2          3          4
     1  N    7.541797  -0.045428  -0.143716   0.289870
     2  C   -0.045428   4.856682   0.037616  -0.030086
     3  N   -0.143716   0.037616   7.885687  -0.003842
     4  H    0.289870  -0.030086  -0.003842   0.507006
 Mulliken atomic charges:
              1
     1  N   -0.642523
     2  C    1.181216
     3  N   -0.775745
     4  H    0.237052
 Sum of Mulliken charges=   0.00000
 Atomic charges with hydrogens summed into heavy atoms:
              1
     1  N   -0.405471
     2  C    1.181216
     3  N   -0.775745
     4  H    0.000000
 Sum of Mulliken charges=   0.00000
          Atomic-Atomic Spin Densities.
              1          2          3          4
     1  N    0.759703  -0.068599  -0.037638   0.006883
     2  C   -0.068599  -0.183347  -0.010941   0.002823
     3  N   -0.037638  -0.010941   0.669327  -0.000379
     4  H    0.006883   0.002823  -0.000379  -0.029981
 Mulliken atomic spin densities:
              1
     1  N    0.660350
     2  C   -0.260064
     3  N    0.620369
     4  H   -0.020655
 Sum of Mulliken spin densities=   1.00000
 APT atomic charges:
              1
     1  N   -0.263236
     2  C    0.129160
     3  N   -0.146879
     4  H    0.280954
 Sum of APT charges=   0.00000
 APT Atomic charges with hydrogens summed into heavy atoms:
              1
     1  N    0.017718
     2  C    0.129160
     3  N   -0.146879
     4  H    0.000000
 Sum of APT charges=   0.00000
 Electronic spatial extent (au):  <R**2>=   126.8502
 Charge=     0.0000 electrons
 Dipole moment (field-independent basis, Debye):
    X=     1.5899    Y=    -2.2074    Z=     0.0000  Tot=     2.7203
 Quadrupole moment (field-independent basis, Debye-Ang):
   XX=   -16.1695   YY=   -19.6310   ZZ=   -16.6556
   XY=    -2.6561   XZ=     0.0000   YZ=     0.0000
 Traceless Quadrupole moment (field-independent basis, Debye-Ang):
   XX=     1.3159   YY=    -2.1456   ZZ=     0.8297
   XY=    -2.6561   XZ=     0.0000   YZ=     0.0000
 Octapole moment (field-independent basis, Debye-Ang**2):
  XXX=     2.2242  YYY=    -9.8499  ZZZ=     0.0000  XYY=     5.2936
  XXY=    -2.7537  XXZ=     0.0000  XZZ=     0.3065  YZZ=    -0.3496
  YYZ=     0.0000  XYZ=     0.0000
 Hexadecapole moment (field-independent basis, Debye-Ang**3):
 XXXX=   -18.9100 YYYY=  -138.4035 ZZZZ=   -16.3435 XXXY=     0.4988
 XXXZ=     0.0000 YYYX=    -4.8407 YYYZ=     0.0000 ZZZX=     0.0000
 ZZZY=     0.0000 XXYY=   -23.4937 XXZZ=    -6.0872 YYZZ=   -24.9465
 XXYZ=     0.0000 YYXZ=     0.0000 ZZXY=     0.7873
 N-N= 5.327787871807D+01 E-N=-4.525312410741D+02  KE= 1.476044042814D+02
  Exact polarizability:  19.258  -1.889  42.333   0.000   0.000  18.490
 Approx polarizability:  26.030  -2.862  77.360   0.000   0.000  24.344
                          Isotropic Fermi Contact Couplings
        Atom                 a.u.       MegaHertz       Gauss      10(-4) cm-1
     1  N(14)              0.05325      17.20669       6.13977       5.73953
     2  C(13)             -0.04840     -54.40937     -19.41462     -18.14901
     3  N(14)              0.02642       8.53673       3.04612       2.84754
     4  H(1)              -0.00915     -40.88041     -14.58715     -13.63624
 --------------------------------------------------------
       Center         ----  Spin Dipole Couplings  ----
                      3XX-RR        3YY-RR        3ZZ-RR
 --------------------------------------------------------
     1   Atom       -0.732162     -0.729260      1.461422
     2   Atom       -0.027108      0.204425     -0.177317
     3   Atom       -0.592261     -0.691900      1.284161
     4   Atom        0.045138     -0.035721     -0.009418
 --------------------------------------------------------
                        XY            XZ            YZ
 --------------------------------------------------------
     1   Atom       -0.008112      0.000000      0.000000
     2   Atom       -0.007138      0.000000      0.000000
     3   Atom        0.005824      0.000000      0.000000
     4   Atom       -0.054744      0.000000      0.000000
 --------------------------------------------------------


 ---------------------------------------------------------------------------------
              Anisotropic Spin Dipole Couplings in Principal Axis System
 ---------------------------------------------------------------------------------

       Atom             a.u.   MegaHertz   Gauss  10(-4) cm-1        Axes

              Baa    -0.7390   -28.500   -10.169    -9.506  0.7668  0.6418  0.0000
     1 N(14)  Bbb    -0.7225   -27.864    -9.943    -9.294 -0.6418  0.7668  0.0000
              Bcc     1.4614    56.364    20.112    18.801  0.0000  0.0000  1.0000
 
              Baa    -0.1773   -23.794    -8.490    -7.937  0.0000  0.0000  1.0000
     2 C(13)  Bbb    -0.0273    -3.667    -1.309    -1.223  0.9995  0.0308  0.0000
              Bcc     0.2046    27.461     9.799     9.160 -0.0308  0.9995  0.0000
 
              Baa    -0.6922   -26.698    -9.527    -8.906 -0.0582  0.9983  0.0000
     3 N(14)  Bbb    -0.5919   -22.829    -8.146    -7.615  0.9983  0.0582  0.0000
              Bcc     1.2842    49.527    17.673    16.521  0.0000  0.0000  1.0000
 
              Baa    -0.0633   -33.799   -12.060   -11.274  0.4505  0.8928  0.0000
     4 H(1)   Bbb    -0.0094    -5.025    -1.793    -1.676  0.0000  0.0000  1.0000
              Bcc     0.0728    38.823    13.853    12.950  0.8928 -0.4505  0.0000
 

 ---------------------------------------------------------------------------------

 Full mass-weighted force constant matrix:
 Low frequencies ---   -7.0227   -5.6276   -0.0005    0.0013    0.0016   21.8122
 Low frequencies ---  468.4174  497.2854 1057.2050
 Diagonal vibrational polarizability:
        0.2930488       4.3810135       1.0303099
 Harmonic frequencies (cm**-1), IR intensities (KM/Mole), Raman scattering
 activities (A**4/AMU), depolarization ratios for plane and unpolarized
 incident light, reduced masses (AMU), force constants (mDyne/A),
 and normal coordinates:
                     1                      2                      3
                    A"                     A'                     A'
 Frequencies --   468.4172               497.2854              1057.2050
 Red. masses --     8.5795                 4.2851                 1.4944
 Frc consts  --     1.1091                 0.6243                 0.9841
 IR Inten    --     8.4004                19.3939                98.9366
 Atom AN      X      Y      Z        X      Y      Z        X      Y      Z
   1   7     0.00   0.00   0.24    -0.13   0.05   0.00     0.11   0.11   0.00
   2   6     0.00   0.00  -0.71     0.46   0.02   0.00    -0.11  -0.05   0.00
   3   7     0.00   0.00   0.32    -0.23  -0.02   0.00     0.02  -0.01   0.00
   4   1     0.00   0.00   0.58    -0.50  -0.69   0.00    -0.43  -0.88   0.00
                     4                      5                      6
                    A'                     A'                     A'
 Frequencies --  1203.1034              1906.8091              3474.5387
 Red. masses --     5.8091                10.5732                 1.0749
 Frc consts  --     4.9541                22.6502                 7.6454
 IR Inten    --     1.9491                 7.5899                39.9152
 Atom AN      X      Y      Z        X      Y      Z        X      Y      Z
   1   7    -0.04   0.45   0.00     0.03  -0.12   0.00    -0.06   0.04   0.00
   2   6     0.03  -0.16   0.00    -0.07   0.75   0.00     0.00   0.00   0.00
   3   7     0.01  -0.37   0.00     0.04  -0.49   0.00     0.00   0.00   0.00
   4   1     0.09   0.79   0.00    -0.09  -0.41   0.00     0.88  -0.46   0.00

 -------------------
 - Thermochemistry -
 -------------------
 Temperature   298.150 Kelvin.  Pressure   1.00000 Atm.
 Atom  1 has atomic number  7 and mass  14.00307
 Atom  2 has atomic number  6 and mass  12.00000
 Atom  3 has atomic number  7 and mass  14.00307
 Atom  4 has atomic number  1 and mass   1.00783
 Molecular mass:    41.01397 amu.
 Principal axes and moments of inertia in atomic units:
                           1         2         3
     EIGENVALUES --     2.75712 160.89734 163.65446
           X           -0.04979   0.99876   0.00000
           Y            0.99876   0.04979   0.00000
           Z            0.00000   0.00000   1.00000
 This molecule is an asymmetric top.
 Rotational symmetry number  1.
 Rotational temperatures (Kelvin)     31.41465     0.53832     0.52925
 Rotational constants (GHZ):         654.57576    11.21672    11.02775
 Zero-point vibrational energy      51483.4 (Joules/Mol)
                                   12.30484 (Kcal/Mol)
 Warning -- explicit consideration of   2 degrees of freedom as
           vibrations may cause significant error
 Vibrational temperatures:    673.95   715.48  1521.08  1731.00  2743.47
          (Kelvin)           4999.08
 
 Zero-point correction=                           0.019609 (Hartree/Particle)
 Thermal correction to Energy=                    0.022963
 Thermal correction to Enthalpy=                  0.023907
 Thermal correction to Gibbs Free Energy=        -0.004072
 Sum of electronic and zero-point Energies=           -148.166456
 Sum of electronic and thermal Energies=              -148.163102
 Sum of electronic and thermal Enthalpies=            -148.162157
 Sum of electronic and thermal Free Energies=         -148.190136
 
                     E (Thermal)             CV                S
                      KCal/Mol        Cal/Mol-Kelvin    Cal/Mol-Kelvin
 Total                   14.410              9.076             58.887
 Electronic               0.000              0.000              1.377
 Translational            0.889              2.981             37.061
 Rotational               0.889              2.981             18.924
 Vibrational             12.632              3.115              1.524
 Vibration  1             0.826              1.320              0.742
 Vibration  2             0.853              1.256              0.665
                       Q            Log10(Q)             Ln(Q)
 Total Bot       0.746199D+02          1.872855          4.312407
 Total V=0       0.780463D+11         10.892352         25.080568
 Vib (Bot)       0.118484D-08         -8.926341        -20.553659
 Vib (Bot)  1    0.360574D+00         -0.443006         -1.020059
 Vib (Bot)  2    0.331296D+00         -0.479784         -1.104743
 Vib (V=0)       0.123925D+01          0.093157          0.214503
 Vib (V=0)  1    0.111645D+01          0.047840          0.110156
 Vib (V=0)  2    0.109980D+01          0.041313          0.095126
 Electronic      0.200000D+01          0.301030          0.693147
 Translational   0.103241D+08          7.013853         16.149993
 Rotational      0.305009D+04          3.484312          8.022925
 -------------------------------------------------------------------
 Center     Atomic                   Forces (Hartrees/Bohr)
 Number     Number              X              Y              Z
 -------------------------------------------------------------------
    1          7           0.000003607    0.000025947    0.000000000
    2          6          -0.000008920   -0.000023499    0.000000000
    3          7           0.000004230   -0.000001543    0.000000000
    4          1           0.000001083   -0.000000905    0.000000000
 -------------------------------------------------------------------
 Cartesian Forces:  Max     0.000025947 RMS     0.000010568

 GradGradGradGradGradGradGradGradGradGradGradGradGradGradGradGradGradGrad
 Berny optimization.
 Internal  Forces:  Max     0.000025217 RMS     0.000010975
 Search for a local minimum.
 Step number   1 out of a maximum of   2
 All quantities printed in internal units (Hartrees-Bohrs-Radians)
 Second derivative matrix not updated -- analytic derivatives used.
 The second derivative matrix:
                          R1        R2        R3        A1        A2
           R1           0.54968
           R2          -0.00317   0.42975
           R3           0.16758  -0.00084   0.88013
           A1           0.07976   0.03251  -0.00765   0.13858
           A2           0.01450   0.00439   0.00899   0.01491   0.12623
           D1           0.00000   0.00000   0.00000   0.00000   0.00000
                          D1
           D1           0.00105
     Eigenvalues ---    0.00105   0.11127   0.13582   0.49634   0.95120
     Eigenvalues --- 1000.00000
 Angle between quadratic step and forces=  37.91 degrees.
 Linear search not attempted -- first point.
 Iteration  1 RMS(Cart)=  0.00003570 RMS(Int)=  0.00000000
 Iteration  2 RMS(Cart)=  0.00000000 RMS(Int)=  0.00000000
 Iteration  1 RMS(Cart)=  0.00000000 RMS(Int)=  0.00000000
 Variable       Old X    -DE/DX   Delta X   Delta X   Delta X     New X
                                 (Linear)    (Quad)   (Total)
    R1        2.39913  -0.00003   0.00000  -0.00005  -0.00005   2.39908
    R2        1.92862   0.00000   0.00000   0.00000   0.00000   1.92862
    R3        2.24491   0.00000   0.00000   0.00001   0.00001   2.24492
    A1        1.98241   0.00000   0.00000   0.00003   0.00003   1.98244
    A2        3.03814   0.00001   0.00000   0.00007   0.00007   3.03821
    D1        3.14159   0.00000   0.00000   0.00000   0.00000   3.14159
         Item               Value     Threshold  Converged?
 Maximum Force            0.000025     0.000450     YES
 RMS     Force            0.000012     0.000300     YES
 Maximum Displacement     0.000060     0.001800     YES
 RMS     Displacement     0.000036     0.001200     YES
 Predicted change in Energy=-1.015306D-09
 Optimization completed.
    -- Stationary point found.
                           ----------------------------
                           !   Optimized Parameters   !
                           ! (Angstroms and Degrees)  !
 --------------------------                            --------------------------
 ! Name  Definition              Value          Derivative Info.                !
 --------------------------------------------------------------------------------
 ! R1    R(1,2)                  1.2696         -DE/DX =    0.0                 !
 ! R2    R(1,4)                  1.0206         -DE/DX =    0.0                 !
 ! R3    R(2,3)                  1.188          -DE/DX =    0.0                 !
 ! A1    A(2,1,4)              113.5837         -DE/DX =    0.0                 !
 ! A2    A(1,2,3)              174.0725         -DE/DX =    0.0                 !
 ! D1    D(4,1,2,3)            180.0            -DE/DX =    0.0                 !
 --------------------------------------------------------------------------------
 GradGradGradGradGradGradGradGradGradGradGradGradGradGradGradGradGradGrad

 1\1\GINC-IRIS087\Freq\UB3LYP\6-311++G(3df,2p)\C1H1N2(2)\U31MHL01\20-Oc
 t-2007\0\\#N Geom=AllCheck Guess=Read SCRF=Check GenChk UB3LYP/6-311++
 G(3df,2p) Freq\\Title Card Required\\0,2\N,-0.0423657782,-1.1595776817
 ,0.\C,-0.0000003616,0.1092803044,0.\N,-0.0831819725,1.2943213317,0.\H,
 0.8788251122,-1.5988849544,0.\\Version=EM64T-G03RevD.02\HF=-148.186064
 7\S2=0.771969\S2-1=0.\S2A=0.75014\RMSD=0.000e+00\RMSF=1.057e-05\ZeroPo
 int=0.019609\Thermal=0.0229631\Dipole=0.6254977,-0.8684385,0.\DipoleDe
 riv=-0.0437847,-0.0581019,0.0000006,0.0633875,-0.364579,-0.0000044,0.0
 000001,-0.0000004,-0.3813433,0.1464254,0.0231402,-0.0000013,0.0478556,
 -0.1369052,0.0000091,-0.0000009,0.0000022,0.3779607,-0.2499364,-0.0059
 177,0.,-0.0704557,0.1333912,-0.0000039,-0.0000002,0.0000004,-0.3240908
 ,0.1472958,0.0408794,0.0000006,-0.0407875,0.368093,-0.0000009,0.000001
 ,-0.0000022,0.3274735\Polar=19.2580645,-1.8891635,42.3328666,0.0000525
 ,-0.0001226,18.4903783\PG=CS [SG(C1H1N2)]\NImag=0\\0.39246274,-0.17099
 050,0.60049585,0.,0.00000001,0.01121374,-0.07488508,-0.02140492,0.,0.1
 3034165,0.04740794,-0.34331625,-0.00000005,-0.07712452,1.09302550,0.,-
 0.00000008,-0.02786678,-0.00000002,0.00000018,0.06942556,0.02606753,0.
 00861725,0.,-0.05495239,0.05135309,0.,0.02867599,-0.00417276,-0.171270
 97,0.00000003,0.05896588,-0.70888537,-0.00000008,-0.05575873,0.8765000
 8,0.,-0.00000001,0.01475226,0.,0.00000003,-0.03676290,0.,-0.00000001,0
 .01946234,-0.34364519,0.18377816,-0.00000001,-0.00050417,-0.02163651,0
 .00000002,0.00020887,0.00096562,0.,0.34394050,0.12775532,-0.08590863,0
 .00000001,0.03956356,-0.04082389,-0.00000002,-0.00421162,0.00365627,0.
 ,-0.16310727,0.12307625,-0.00000002,0.00000008,0.00190079,0.00000003,-
 0.00000015,-0.00479588,0.,0.00000006,0.00254830,0.,0.00000001,0.000346
 80\\-0.00000361,-0.00002595,0.,0.00000892,0.00002350,0.,-0.00000423,0.
 00000154,0.,-0.00000108,0.00000090,0.\\\@


 ALL OUR THINKING ABOUT NATURE MUST NECESSARILY MOVE IN CIRCLES OR SPIRALS;
 FOR WE CAN ONLY UNDERSTAND NATURE IF WE THINK ABOUT HER, AND WE CAN ONLY
 THINK BECAUSE OUR BRAIN IS BUILT IN ACCORDANCE WITH NATURE'S LAWS.

                                             -- TIMOTHY FERRIS, "GALAXIES"
 Job cpu time:  0 days  0 hours  1 minutes 18.3 seconds.
 File lengths (MBytes):  RWF=     55 Int=      0 D2E=      0 Chk=      7 Scr=      1
 Normal termination of Gaussian 03 at Sat Oct 20 03:48:46 2007.
 Initial command:
 /package/chem/g03/l1.exe /work2/u31mhl01/vTS_H-NCN.14664/Gau-5685.inp -scrdir=/work2/u31mhl01/vTS_H-NCN.14664/
 Entering Link 1 = /package/chem/g03/l1.exe PID=      5844.
  
 Copyright (c) 1988,1990,1992,1993,1995,1998,2003,2004, Gaussian, Inc.
                  All Rights Reserved.
  
 This is the Gaussian(R) 03 program.  It is based on the
 the Gaussian(R) 98 system (copyright 1998, Gaussian, Inc.),
 the Gaussian(R) 94 system (copyright 1995, Gaussian, Inc.),
 the Gaussian 92(TM) system (copyright 1992, Gaussian, Inc.),
 the Gaussian 90(TM) system (copyright 1990, Gaussian, Inc.),
 the Gaussian 88(TM) system (copyright 1988, Gaussian, Inc.),
 the Gaussian 86(TM) system (copyright 1986, Carnegie Mellon
 University), and the Gaussian 82(TM) system (copyright 1983,
 Carnegie Mellon University). Gaussian is a federally registered
 trademark of Gaussian, Inc.
  
 This software contains proprietary and confidential information,
 including trade secrets, belonging to Gaussian, Inc.
  
 This software is provided under written license and may be
 used, copied, transmitted, or stored only in accord with that
 written license.
  
 The following legend is applicable only to US Government
 contracts under FAR:
  
                    RESTRICTED RIGHTS LEGEND
  
 Use, reproduction and disclosure by the US Government is
 subject to restrictions as set forth in subparagraphs (a)
 and (c) of the Commercial Computer Software - Restricted
 Rights clause in FAR 52.227-19.
  
 Gaussian, Inc.
 340 Quinnipiac St., Bldg. 40, Wallingford CT 06492
  
  
 ---------------------------------------------------------------
 Warning -- This program may not be used in any manner that
 competes with the business of Gaussian, Inc. or will provide
 assistance to any competitor of Gaussian, Inc.  The licensee
 of this program is prohibited from giving any competitor of
 Gaussian, Inc. access to this program.  By using this program,
 the user acknowledges that Gaussian, Inc. is engaged in the
 business of creating and licensing software in the field of
 computational chemistry and represents and warrants to the
 licensee that it is not a competitor of Gaussian, Inc. and that
 it will not use this program in any manner prohibited above.
 ---------------------------------------------------------------
  

 Cite this work as:
 Gaussian 03, Revision D.02,
 M. J. Frisch, G. W. Trucks, H. B. Schlegel, G. E. Scuseria, 
 M. A. Robb, J. R. Cheeseman, J. A. Montgomery, Jr., T. Vreven, 
 K. N. Kudin, J. C. Burant, J. M. Millam, S. S. Iyengar, J. Tomasi, 
 V. Barone, B. Mennucci, M. Cossi, G. Scalmani, N. Rega, 
 G. A. Petersson, H. Nakatsuji, M. Hada, M. Ehara, K. Toyota, 
 R. Fukuda, J. Hasegawa, M. Ishida, T. Nakajima, Y. Honda, O. Kitao, 
 H. Nakai, M. Klene, X. Li, J. E. Knox, H. P. Hratchian, J. B. Cross, 
 V. Bakken, C. Adamo, J. Jaramillo, R. Gomperts, R. E. Stratmann, 
 O. Yazyev, A. J. Austin, R. Cammi, C. Pomelli, J. W. Ochterski, 
 P. Y. Ayala, K. Morokuma, G. A. Voth, P. Salvador, J. J. Dannenberg, 
 V. G. Zakrzewski, S. Dapprich, A. D. Daniels, M. C. Strain, 
 O. Farkas, D. K. Malick, A. D. Rabuck, K. Raghavachari, 
 J. B. Foresman, J. V. Ortiz, Q. Cui, A. G. Baboul, S. Clifford, 
 J. Cioslowski, B. B. Stefanov, G. Liu, A. Liashenko, P. Piskorz, 
 I. Komaromi, R. L. Martin, D. J. Fox, T. Keith, M. A. Al-Laham, 
 C. Y. Peng, A. Nanayakkara, M. Challacombe, P. M. W. Gill, 
 B. Johnson, W. Chen, M. W. Wong, C. Gonzalez, and J. A. Pople, 
 Gaussian, Inc., Wallingford CT, 2004.
 
 ******************************************
 Gaussian 03:  EM64T-G03RevD.02  1-Mar-2006
                20-Oct-2007 
 ******************************************
 %NprocLinda=1
 Will use up to    1 processors via Linda.
 %NprocShared=4
 Will use up to    4 processors via shared memory.
 %chk=vTS_H-NCN.chk
 %mem=1GB
 Default route:  MaxDisk=120GB
 ----------------------------------------------------------------------
 #b3lyp/6-311++g(3df,2p) opt=(modredundant,maxcycle=300) freq scfcyc=40
 0 nosymmetry scf=qc geom=check guess=read
 ----------------------------------------------------------------------
 1/6=300,14=-1,18=120,26=3,29=2,38=1/1,3;
 2/9=110,15=1,40=1/2;
 3/5=4,6=6,7=1216,11=2,16=1,25=1,30=1,74=-5/1,2,3;
 4/5=1/1;
 5/5=2,7=400,8=3,38=6/8;
 6/7=2,8=2,9=2,10=2,28=1/1;
 7/30=1/1,2,3,16;
 1/6=300,14=-1,18=20/3(3);
 2/9=110,15=1/2;
 6/7=2,8=2,9=2,10=2,19=2,28=1/1;
 99//99;
 2/9=110,15=1/2;
 3/5=4,6=6,7=1216,11=2,16=1,25=1,30=1,74=-5/1,2,3;
 4/5=5,16=3/1;
 5/5=2,7=400,8=3,38=5/8;
 7/30=1/1,2,3,16;
 1/6=300,14=-1,18=20/3(-5);
 2/9=110,15=1/2;
 6/7=2,8=2,9=2,10=2,19=2,28=1/1;
 99/9=1/99;
 -------------------
 Title Card Required
 -------------------
 Redundant internal coordinates taken from checkpoint file:
 vTS_H-NCN.chk
 Charge =  0 Multiplicity = 2
 N,0,-0.0423657782,-1.1595776817,0.
 C,0,-0.0000003616,0.1092803044,0.
 N,0,-0.0831819725,1.2943213317,0.
 H,0,0.8788251122,-1.5988849544,0.
 Recover connectivity data from disk.
 The following ModRedundant input section has been read:
 B    1    4 1.1200 F                                                          
 Iteration  1 RMS(Cart)=  0.06070115 RMS(Int)=  0.00054215
 Iteration  2 RMS(Cart)=  0.00072036 RMS(Int)=  0.00000044
 Iteration  3 RMS(Cart)=  0.00000038 RMS(Int)=  0.00000000
 Iteration  1 RMS(Cart)=  0.00000000 RMS(Int)=  0.00000000

 GradGradGradGradGradGradGradGradGradGradGradGradGradGradGradGradGradGrad
 Berny optimization.
 Initialization pass.
                           ----------------------------
                           !    Initial Parameters    !
                           ! (Angstroms and Degrees)  !
 --------------------------                            --------------------------
 ! Name  Definition              Value          Derivative Info.                !
 --------------------------------------------------------------------------------
 ! R1    R(1,2)                  1.2696         estimate D2E/DX2                !
 ! R2    R(1,4)                  1.12           Frozen                          !
 ! R3    R(2,3)                  1.188          estimate D2E/DX2                !
 ! A1    A(2,1,4)              113.5837         estimate D2E/DX2                !
 ! A2    A(1,2,3)              174.0725         estimate D2E/DX2                !
 ! D1    D(4,1,2,3)            180.0            estimate D2E/DX2                !
 --------------------------------------------------------------------------------
 Trust Radius=3.00D-01 FncErr=1.00D-07 GrdErr=1.00D-06
 Number of steps in this run= 100 maximum allowed number of steps= 100.
 GradGradGradGradGradGradGradGradGradGradGradGradGradGradGradGradGradGrad

                          Input orientation:                          
 ---------------------------------------------------------------------
 Center     Atomic     Atomic              Coordinates (Angstroms)
 Number     Number      Type              X           Y           Z
 ---------------------------------------------------------------------
    1          7             0       -0.076267   -1.145207    0.000000
    2          6             0       -0.015907    0.122923    0.000000
    3          7             0       -0.082270    1.309024    0.000000
    4          1             0        0.927721   -1.641601    0.000000
 ---------------------------------------------------------------------
                    Distance matrix (angstroms):
                    1          2          3          4
     1  N    0.000000
     2  C    1.269565   0.000000
     3  N    2.454238   1.187957   0.000000
     4  H    1.120000   2.000994   3.118697   0.000000
 Symmetry turned off by external request.
 Stoichiometry    CHN2(2)
 Framework group  CS[SG(CHN2)]
 Deg. of freedom     5
 Full point group                 CS
 Rotational constants (GHZ):    547.5763138     11.1763126     10.9527611
 Standard basis: 6-311++G(3df,2p) (5D, 7F)
 Integral buffers will be    131072 words long.
 Raffenetti 2 integral format.
 Two-electron integral symmetry is turned off.
   127 basis functions,   186 primitive gaussians,   145 cartesian basis functions
    11 alpha electrons       10 beta electrons
       nuclear repulsion energy        52.8624287061 Hartrees.
 NAtoms=    4 NActive=    4 NUniq=    4 SFac= 7.50D-01 NAtFMM=   80 NAOKFM=F Big=F
 One-electron integrals computed using PRISM.
 NBasis=   127 RedAO= T  NBF=   127
 NBsUse=   127 1.00D-06 NBFU=   127
 Initial guess read from the checkpoint file:
 vTS_H-NCN.chk
 <S**2> of initial guess= 0.7721
 Keep R1 and R2 integrals in memory in canonical form, NReq=   114217725.
 Gradient too large for Newton-Raphson -- use scaled steepest descent instead.
 Gradient too large for Newton-Raphson -- use scaled steepest descent instead.
 Gradient too large for Newton-Raphson -- use scaled steepest descent instead.
 LinEq1:  Iter=  0 NonCon=   1 RMS=2.15D-04 Max=5.23D-03
 AX will form   1 AO Fock derivatives at one time.
 LinEq1:  Iter=  1 NonCon=   1 RMS=2.29D-04 Max=4.20D-03
 LinEq1:  Iter=  2 NonCon=   1 RMS=4.09D-05 Max=8.11D-04
 LinEq1:  Iter=  3 NonCon=   1 RMS=3.91D-05 Max=1.11D-03
 LinEq1:  Iter=  4 NonCon=   1 RMS=9.43D-06 Max=1.64D-04
 LinEq1:  Iter=  5 NonCon=   1 RMS=2.68D-06 Max=3.52D-05
 LinEq1:  Iter=  6 NonCon=   1 RMS=8.90D-07 Max=1.09D-05
 LinEq1:  Iter=  7 NonCon=   1 RMS=4.53D-07 Max=7.43D-06
 LinEq1:  Iter=  8 NonCon=   1 RMS=1.79D-07 Max=2.00D-06
 LinEq1:  Iter=  9 NonCon=   1 RMS=5.61D-08 Max=9.25D-07
 LinEq1:  Iter= 10 NonCon=   1 RMS=1.90D-08 Max=4.22D-07
 LinEq1:  Iter= 11 NonCon=   0 RMS=4.09D-09 Max=4.56D-08
 Linear equations converged to 4.946D-09 4.946D-08 after  11 iterations.
 LinEq1:  Iter=  0 NonCon=   1 RMS=3.18D-07 Max=5.70D-06
 LinEq1:  Iter=  1 NonCon=   1 RMS=1.63D-07 Max=2.64D-06
 LinEq1:  Iter=  2 NonCon=   1 RMS=1.53D-07 Max=5.24D-06
 LinEq1:  Iter=  3 NonCon=   1 RMS=1.21D-07 Max=2.66D-06
 LinEq1:  Iter=  4 NonCon=   1 RMS=1.10D-07 Max=2.21D-06
 LinEq1:  Iter=  5 NonCon=   1 RMS=4.47D-08 Max=5.30D-07
 LinEq1:  Iter=  6 NonCon=   1 RMS=1.57D-08 Max=2.62D-07
 LinEq1:  Iter=  7 NonCon=   1 RMS=6.16D-09 Max=8.95D-08
 LinEq1:  Iter=  8 NonCon=   1 RMS=1.61D-09 Max=2.11D-08
 LinEq1:  Iter=  9 NonCon=   1 RMS=4.71D-10 Max=7.38D-09
 LinEq1:  Iter= 10 NonCon=   1 RMS=1.26D-10 Max=2.82D-09
 LinEq1:  Iter= 11 NonCon=   0 RMS=2.54D-11 Max=4.18D-10
 Linear equations converged to 9.231D-11 9.231D-10 after  11 iterations.
 SCF Done:  E(UB+HF-LYP) =  -148.179899835     a.u. after    6 cycles
            Convg  =    0.1625D-06                    41 Fock formations.
              S**2 =  0.7724                  -V/T =  2.0048
 Annihilation of the first spin contaminant:
 S**2 before annihilation     0.7724,   after     0.7502

 **********************************************************************

            Population analysis using the SCF density.

 **********************************************************************

 Alpha  occ. eigenvalues --  -14.40788 -14.36570 -10.27275  -0.99282  -0.92605
 Alpha  occ. eigenvalues --   -0.58802  -0.45970  -0.44779  -0.41558  -0.32993
 Alpha  occ. eigenvalues --   -0.32929
 Alpha virt. eigenvalues --   -0.03794   0.00438   0.03721   0.04103   0.05129
 Alpha virt. eigenvalues --    0.05404   0.07648   0.10926   0.12640   0.12921
 Alpha virt. eigenvalues --    0.16294   0.16975   0.18913   0.21215   0.21417
 Alpha virt. eigenvalues --    0.26227   0.28507   0.30341   0.34452   0.41681
 Alpha virt. eigenvalues --    0.48803   0.49803   0.50736   0.52915   0.54646
 Alpha virt. eigenvalues --    0.56187   0.56939   0.60703   0.64486   0.66252
 Alpha virt. eigenvalues --    0.71840   0.72938   0.75849   0.79140   0.79334
 Alpha virt. eigenvalues --    0.84390   0.89267   0.98897   1.01331   1.02639
 Alpha virt. eigenvalues --    1.06959   1.09790   1.17254   1.20259   1.27921
 Alpha virt. eigenvalues --    1.30374   1.43545   1.51203   1.54191   1.58975
 Alpha virt. eigenvalues --    1.77630   1.79570   1.85865   2.17850   2.24865
 Alpha virt. eigenvalues --    2.34324   2.34749   2.39751   2.42510   2.50196
 Alpha virt. eigenvalues --    2.69520   2.72039   2.72585   2.77919   2.83164
 Alpha virt. eigenvalues --    2.83314   2.86235   2.88875   2.95681   3.00957
 Alpha virt. eigenvalues --    3.19567   3.27054   3.46355   3.56932   3.60722
 Alpha virt. eigenvalues --    3.60861   3.65213   3.70744   3.72086   3.82719
 Alpha virt. eigenvalues --    3.84087   4.00135   4.02316   4.10885   4.14650
 Alpha virt. eigenvalues --    4.20571   4.25523   4.32664   4.53820   4.55952
 Alpha virt. eigenvalues --    4.83820   4.84590   4.93728   5.04649   5.55024
 Alpha virt. eigenvalues --    6.14269   6.14754   6.42968   6.92896   6.94763
 Alpha virt. eigenvalues --    7.24931   7.32129   8.04480  10.07377  10.11672
 Alpha virt. eigenvalues --   10.11883  10.22231  10.47478  10.67566  10.92535
 Alpha virt. eigenvalues --   10.97574  11.05610  11.15137  25.33326  36.01587
 Alpha virt. eigenvalues --   37.39793
  Beta  occ. eigenvalues --  -14.39508 -14.35411 -10.27604  -0.97193  -0.89521
  Beta  occ. eigenvalues --   -0.57931  -0.43869  -0.41024  -0.39945  -0.31604
  Beta virt. eigenvalues --   -0.18827  -0.03510   0.00569   0.03824   0.05239
  Beta virt. eigenvalues --    0.05292   0.07695   0.07719   0.11122   0.12800
  Beta virt. eigenvalues --    0.13789   0.16378   0.17199   0.19047   0.21600
  Beta virt. eigenvalues --    0.22434   0.26576   0.28651   0.30715   0.34563
  Beta virt. eigenvalues --    0.41845   0.48879   0.50063   0.51182   0.53101
  Beta virt. eigenvalues --    0.54794   0.57074   0.58388   0.61412   0.66194
  Beta virt. eigenvalues --    0.66710   0.72576   0.73852   0.76501   0.79859
  Beta virt. eigenvalues --    0.81410   0.84658   0.89761   0.99444   1.01526
  Beta virt. eigenvalues --    1.03357   1.07415   1.11906   1.17819   1.23268
  Beta virt. eigenvalues --    1.28176   1.30755   1.43867   1.50461   1.53627
  Beta virt. eigenvalues --    1.60121   1.78957   1.80773   1.86148   2.21161
  Beta virt. eigenvalues --    2.27922   2.36162   2.37436   2.43114   2.43389
  Beta virt. eigenvalues --    2.53728   2.69104   2.71189   2.71698   2.77624
  Beta virt. eigenvalues --    2.83470   2.85647   2.87690   2.91103   2.96323
  Beta virt. eigenvalues --    3.01378   3.20189   3.27652   3.48429   3.58299
  Beta virt. eigenvalues --    3.63470   3.63910   3.68686   3.71873   3.74949
  Beta virt. eigenvalues --    3.84255   3.86577   4.04328   4.04498   4.15725
  Beta virt. eigenvalues --    4.15912   4.22265   4.25942   4.34273   4.55511
  Beta virt. eigenvalues --    4.57328   4.85088   4.86397   4.94088   5.05347
  Beta virt. eigenvalues --    5.55644   6.14638   6.17191   6.43889   6.91513
  Beta virt. eigenvalues --    6.93395   7.24114   7.31650   8.04435  10.12872
  Beta virt. eigenvalues --   10.16824  10.17238  10.27276  10.52593  10.69190
  Beta virt. eigenvalues --   10.94807  11.02328  11.07749  11.15971  25.33043
  Beta virt. eigenvalues --   36.02883  37.41056
          Condensed to atoms (all electrons):
              1          2          3          4
     1  N    7.562477  -0.058905  -0.142253   0.289971
     2  C   -0.058905   4.872519   0.034556  -0.042857
     3  N   -0.142253   0.034556   7.885928  -0.005048
     4  H    0.289971  -0.042857  -0.005048   0.528147
 Mulliken atomic charges:
              1
     1  N   -0.651290
     2  C    1.194687
     3  N   -0.773184
     4  H    0.229787
 Sum of Mulliken charges=   0.00000
 Atomic charges with hydrogens summed into heavy atoms:
              1
     1  N   -0.421503
     2  C    1.194687
     3  N   -0.773184
     4  H    0.000000
 Sum of Mulliken charges=   0.00000
[...]
     2  C(13)             -0.09390    -105.56611     -37.66861     -35.21306
     3  N(14)              0.05859      18.93109       6.75509       6.31473
     4  H(1)              -0.29553   -1320.99695    -471.36454    -440.63715
 --------------------------------------------------------
       Center         ----  Spin Dipole Couplings  ----
                      3XX-RR        3YY-RR        3ZZ-RR
 --------------------------------------------------------
     1   Atom        0.472910     -1.213894      0.740983
     2   Atom       -0.143564      0.364965     -0.221401
     3   Atom        0.477542     -1.215647      0.738105
     4   Atom        0.001015      0.000792     -0.001806
 --------------------------------------------------------
                        XY            XZ            YZ
 --------------------------------------------------------
     1   Atom       -0.718701      0.000000      0.000000
     2   Atom        0.216996      0.000000      0.000000
     3   Atom       -0.711495      0.000000      0.000000
     4   Atom       -0.002532      0.000000      0.000000
 --------------------------------------------------------


 ---------------------------------------------------------------------------------
              Anisotropic Spin Dipole Couplings in Principal Axis System
 ---------------------------------------------------------------------------------

       Atom             a.u.   MegaHertz   Gauss  10(-4) cm-1        Axes

              Baa    -1.4786   -57.026   -20.348   -19.022  0.3456  0.9384  0.0000
     1 N(14)  Bbb     0.7376    28.447    10.151     9.489  0.9384 -0.3456  0.0000
              Bcc     0.7410    28.578    10.197     9.533  0.0000  0.0000  1.0000
 
              Baa    -0.2236   -30.001   -10.705   -10.007  0.9383 -0.3459  0.0000
     2 C(13)  Bbb    -0.2214   -29.710   -10.601    -9.910  0.0000  0.0000  1.0000
              Bcc     0.4450    59.711    21.306    19.917  0.3459  0.9383  0.0000
 
              Baa    -1.4749   -56.884   -20.298   -18.975  0.3424  0.9396  0.0000
     3 N(14)  Bbb     0.7368    28.417    10.140     9.479  0.9396 -0.3424  0.0000
              Bcc     0.7381    28.467    10.158     9.496  0.0000  0.0000  1.0000
 
              Baa    -0.0018    -0.964    -0.344    -0.321  0.0000  0.0000  1.0000
     4 H(1)   Bbb    -0.0016    -0.870    -0.311    -0.290  0.6914  0.7225  0.0000
              Bcc     0.0034     1.834     0.654     0.612  0.7225 -0.6914  0.0000
 

 ---------------------------------------------------------------------------------

 Full mass-weighted force constant matrix:
 Low frequencies ---  -13.1690   -5.7129   -5.1138   -3.4340   -0.0011   -0.0009
 Low frequencies ---   -0.0008    6.1415  446.7755
 ******    1 imaginary frequencies (negative Signs) ****** 
 Diagonal vibrational polarizability:
        2.5985934       2.4808208       2.5878358
 Harmonic frequencies (cm**-1), IR intensities (KM/Mole), Raman scattering
 activities (A**4/AMU), depolarization ratios for plane and unpolarized
 incident light, reduced masses (AMU), force constants (mDyne/A),
 and normal coordinates:
                     1                      2                      3
                    A'                     A'                     ?A
 Frequencies --   -13.0459                 6.0471               446.7739
 Red. masses --     1.0861                 1.5465                12.5376
 Frc consts  --     0.0001                 0.0000                 1.4745
 IR Inten    --     0.0007                 0.0001                19.1947
 Atom AN      X      Y      Z        X      Y      Z        X      Y      Z
   1   7     0.06  -0.03   0.00     0.14  -0.03   0.00     0.01   0.00   0.37
   2   6     0.02  -0.01   0.00     0.01   0.02   0.00    -0.02   0.01  -0.86
   3   7    -0.02   0.00   0.00    -0.12   0.07   0.00     0.01   0.00   0.37
   4   1    -0.84   0.53   0.00    -0.37  -0.91   0.00     0.00   0.00   0.00
                     4                      5                      6
                    ?A                     A'                     A'
 Frequencies --   446.8219              1276.4330              1564.0721
 Red. masses --    12.5379                14.0029                12.5381
 Frc consts  --     1.4748                13.4421                18.0715
 IR Inten    --    19.3881                 0.0163               204.9300
 Atom AN      X      Y      Z        X      Y      Z        X      Y      Z
   1   7    -0.34   0.13   0.01     0.25   0.67   0.00    -0.12  -0.34   0.00
   2   6     0.80  -0.29  -0.02     0.00  -0.01   0.00     0.29   0.80   0.00
   3   7    -0.34   0.12   0.01    -0.24  -0.66   0.00    -0.13  -0.35   0.00
   4   1     0.00   0.00   0.00     0.00   0.00   0.00     0.00   0.00   0.00

 -------------------
 - Thermochemistry -
 -------------------
 Temperature   298.150 Kelvin.  Pressure   1.00000 Atm.
 Atom  1 has atomic number  7 and mass  14.00307
 Atom  2 has atomic number  6 and mass  12.00000
 Atom  3 has atomic number  7 and mass  14.00307
 Atom  4 has atomic number  1 and mass   1.00783
 Molecular mass:    41.01397 amu.
 Principal axes and moments of inertia in atomic units:
                           1         2         3
     EIGENVALUES --    63.46318 192.16923 255.63241
           X           -0.03132   0.99951   0.00000
           Y            0.99951   0.03132   0.00000
           Z            0.00000   0.00000   1.00000
 This molecule is an asymmetric top.
 Rotational symmetry number  1.
 Rotational temperatures (Kelvin)      1.36479     0.45072     0.33882
 Rotational constants (GHZ):          28.43761     9.39142     7.05991
    1 imaginary frequencies ignored.
 Zero-point vibrational energy      22371.1 (Joules/Mol)
                                    5.34681 (Kcal/Mol)
 Warning -- explicit consideration of   3 degrees of freedom as
           vibrations may cause significant error
 Vibrational temperatures:      8.70   642.81   642.88  1836.50  2250.35
          (Kelvin)
 
 Zero-point correction=                           0.008521 (Hartree/Particle)
 Thermal correction to Energy=                    0.012833
 Thermal correction to Enthalpy=                  0.013777
 Thermal correction to Gibbs Free Energy=        -0.020318
 Sum of electronic and zero-point Energies=           -148.036672
 Sum of electronic and thermal Energies=              -148.032360
 Sum of electronic and thermal Enthalpies=            -148.031416
 Sum of electronic and thermal Free Energies=         -148.065511
 
                     E (Thermal)             CV                S
                      KCal/Mol        Cal/Mol-Kelvin    Cal/Mol-Kelvin
 Total                    8.053             10.904             71.759
 Electronic               0.000              0.000              1.377
 Translational            0.889              2.981             37.061
 Rotational               0.889              2.981             22.660
 Vibrational              6.275              4.943             10.661
 Vibration  1             0.593              1.987              9.011
 Vibration  2             0.806              1.368              0.806
 Vibration  3             0.806              1.368              0.805
                       Q            Log10(Q)             Ln(Q)
 Total Bot       0.221639D+10          9.345647         21.519147
 Total V=0       0.184027D+14         13.264881         30.543518
 Vib (Bot)       0.537040D-02         -2.269993         -5.226852
 Vib (Bot)  1    0.342675D+02          1.534882          3.534196
 Vib (Bot)  2    0.384838D+00         -0.414722         -0.954933
 Vib (Bot)  3    0.384782D+00         -0.414786         -0.955079
 Vib (V=0)       0.445904D+02          1.649241          3.797518
 Vib (V=0)  1    0.347711D+02          1.541219          3.548787
 Vib (V=0)  2    0.113095D+01          0.053444          0.123060
 Vib (V=0)  3    0.113092D+01          0.053431          0.123029
 Electronic      0.200000D+01          0.301030          0.693147
 Translational   0.103241D+08          7.013853         16.149993
 Rotational      0.199874D+05          4.300757          9.902859
 -------------------------------------------------------------------
 Center     Atomic                   Forces (Hartrees/Bohr)
 Number     Number              X              Y              Z
 -------------------------------------------------------------------
    1          7           0.000178493    0.000263498    0.000000000
    2          6          -0.000361693   -0.000503193    0.000000000
    3          7           0.000178670    0.000243559    0.000000000
    4          1           0.000004529   -0.000003864    0.000000000
 -------------------------------------------------------------------
 Cartesian Forces:  Max     0.000503193 RMS     0.000219202

 GradGradGradGradGradGradGradGradGradGradGradGradGradGradGradGradGradGrad
 Berny optimization.
 Internal  Forces:  Max     0.000307311 RMS     0.000189776
 Search for a local minimum.
 Step number   1 out of a maximum of   2
 All quantities printed in internal units (Hartrees-Bohrs-Radians)
 Second derivative matrix not updated -- analytic derivatives used.
 The second derivative matrix:
                          R1        R2        R3        A1        A2
           R1           0.62406
           R2           0.00001  -0.00001
           R3           0.23729  -0.00001   0.62820
           A1          -0.00007   0.00001  -0.00008  -0.00001
           A2           0.00017  -0.00001   0.00022   0.00003   0.08482
           D1           0.00000   0.00000   0.00000   0.00000   0.00000
                          D1
           D1           0.00000
     Eigenvalues ---   -0.00001   0.00000   0.08482   0.38883   0.86342
     Eigenvalues --- 1000.00000
 Eigenvalue   1 out of range, new value =    0.000008 Eigenvector:
                           1
           R1           0.00008
           R2           0.00000
           R3           0.00010
           A1           1.00000
           A2          -0.00032
           D1           0.00003
 Eigenvalue   2 out of range, new value =    0.000000 Eigenvector:
                           1
           R1           0.00000
           R2           0.00000
           R3           0.00000
           A1          -0.00003
           A2           0.00000
           D1           1.00000
 Quadratic step=4.276D-01 exceeds max=3.000D-01 adjusted using Lamda=-2.465D-06.
 Angle between NR and scaled steps=  21.71 degrees.
 Angle between quadratic step and forces=  89.26 degrees.
 Linear search not attempted -- first point.
 Iteration  1 RMS(Cart)=  0.25787208 RMS(Int)=  0.04700753
 Iteration  2 RMS(Cart)=  0.00022769 RMS(Int)=  0.04694017
 Iteration  3 RMS(Cart)=  0.00022676 RMS(Int)=  0.04687308
 Iteration  4 RMS(Cart)=  0.00022583 RMS(Int)=  0.04680626
 Iteration  5 RMS(Cart)=  0.00022491 RMS(Int)=  0.04673972
 Iteration  6 RMS(Cart)=  0.00022400 RMS(Int)=  0.04667345
 Iteration  7 RMS(Cart)=  0.00022309 RMS(Int)=  0.04660745
 Iteration  8 RMS(Cart)=  0.00022219 RMS(Int)=  0.04654172
 Iteration  9 RMS(Cart)=  0.00022130 RMS(Int)=  0.04647625
 Iteration 10 RMS(Cart)=  0.00022040 RMS(Int)=  0.04641105
 Iteration 11 RMS(Cart)=  0.00021952 RMS(Int)=  0.04634611
 Iteration 12 RMS(Cart)=  0.00021865 RMS(Int)=  0.04628143
 Iteration 13 RMS(Cart)=  0.00021778 RMS(Int)=  0.04621701
 Iteration 14 RMS(Cart)=  0.00021691 RMS(Int)=  0.04615284
 Iteration 15 RMS(Cart)=  0.00021605 RMS(Int)=  0.04608893
 Iteration 16 RMS(Cart)=  0.00021519 RMS(Int)=  0.04602528
 Iteration 17 RMS(Cart)=  0.00021435 RMS(Int)=  0.04596187
 Iteration 18 RMS(Cart)=  0.00021350 RMS(Int)=  0.04589872
 Iteration 19 RMS(Cart)=  0.00021266 RMS(Int)=  0.04583582
 Iteration 20 RMS(Cart)=  0.00021183 RMS(Int)=  0.04577316
 Iteration 21 RMS(Cart)=  0.00021101 RMS(Int)=  0.04571075
 Iteration 22 RMS(Cart)=  0.00021018 RMS(Int)=  0.04564858
 Iteration 23 RMS(Cart)=  0.00020937 RMS(Int)=  0.04558666
 Iteration 24 RMS(Cart)=  0.00020856 RMS(Int)=  0.04552497
 Iteration 25 RMS(Cart)=  0.00020775 RMS(Int)=  0.04546353
 Iteration 26 RMS(Cart)=  0.00020695 RMS(Int)=  0.04540232
 Iteration 27 RMS(Cart)=  0.00020617 RMS(Int)=  0.04534134
 Iteration 28 RMS(Cart)=  0.00020536 RMS(Int)=  0.04528061
 Iteration 29 RMS(Cart)=  0.00020458 RMS(Int)=  0.04522010
 Iteration 30 RMS(Cart)=  0.00020380 RMS(Int)=  0.04515983
 Iteration 31 RMS(Cart)=  0.00020302 RMS(Int)=  0.04509979
 Iteration 32 RMS(Cart)=  0.00020225 RMS(Int)=  0.04503998
 Iteration 33 RMS(Cart)=  0.00020148 RMS(Int)=  0.04498039
 Iteration 34 RMS(Cart)=  0.00020072 RMS(Int)=  0.04492103
 Iteration 35 RMS(Cart)=  0.00019997 RMS(Int)=  0.04486190
 Iteration 36 RMS(Cart)=  0.00019921 RMS(Int)=  0.04480299
 Iteration 37 RMS(Cart)=  0.00019847 RMS(Int)=  0.04474430
 Iteration 38 RMS(Cart)=  0.00019773 RMS(Int)=  0.04468583
 Iteration 39 RMS(Cart)=  0.00019699 RMS(Int)=  0.04462757
 Iteration 40 RMS(Cart)=  0.00019625 RMS(Int)=  0.04456954
 Iteration 41 RMS(Cart)=  0.00019553 RMS(Int)=  0.04451172
 Iteration 42 RMS(Cart)=  0.00019480 RMS(Int)=  0.04445412
 Iteration 43 RMS(Cart)=  0.00019408 RMS(Int)=  0.04439674
 Iteration 44 RMS(Cart)=  0.00019337 RMS(Int)=  0.04433956
 Iteration 45 RMS(Cart)=  0.00019266 RMS(Int)=  0.04428259
 Iteration 46 RMS(Cart)=  0.00019195 RMS(Int)=  0.04422584
 Iteration 47 RMS(Cart)=  0.00019125 RMS(Int)=  0.04416929
 Iteration 48 RMS(Cart)=  0.00019055 RMS(Int)=  0.04411295
 Iteration 49 RMS(Cart)=  0.00018984 RMS(Int)=  0.04405682
 Iteration 50 RMS(Cart)=  0.00018916 RMS(Int)=  0.04400089
 Iteration 51 RMS(Cart)=  0.00018848 RMS(Int)=  0.04394517
 Iteration 52 RMS(Cart)=  0.00018780 RMS(Int)=  0.04388964
 Iteration 53 RMS(Cart)=  0.00018712 RMS(Int)=  0.04383432
 Iteration 54 RMS(Cart)=  0.00018645 RMS(Int)=  0.04377920
 Iteration 55 RMS(Cart)=  0.00018575 RMS(Int)=  0.04372428
 Iteration 56 RMS(Cart)=  0.00018511 RMS(Int)=  0.04366955
 Iteration 57 RMS(Cart)=  0.00018445 RMS(Int)=  0.04361502
 Iteration 58 RMS(Cart)=  0.00018379 RMS(Int)=  0.04356069
 Iteration 59 RMS(Cart)=  0.00018314 RMS(Int)=  0.04350655
 Iteration 60 RMS(Cart)=  0.00018249 RMS(Int)=  0.04345260
 Iteration 61 RMS(Cart)=  0.00018183 RMS(Int)=  0.04339884
 Iteration 62 RMS(Cart)=  0.00018120 RMS(Int)=  0.04334527
 Iteration 63 RMS(Cart)=  0.00018056 RMS(Int)=  0.04329190
 Iteration 64 RMS(Cart)=  0.00017991 RMS(Int)=  0.04323871
 Iteration 65 RMS(Cart)=  0.00017934 RMS(Int)=  0.04318570
 Iteration 66 RMS(Cart)=  0.00017868 RMS(Int)=  0.04313288
 Iteration 67 RMS(Cart)=  0.00017805 RMS(Int)=  0.04308025
 Iteration 68 RMS(Cart)=  0.00017743 RMS(Int)=  0.04302780
 Iteration 69 RMS(Cart)=  0.00017681 RMS(Int)=  0.04297554
 Iteration 70 RMS(Cart)=  0.00017620 RMS(Int)=  0.04292346
 Iteration 71 RMS(Cart)=  0.00017558 RMS(Int)=  0.04287156
 Iteration 72 RMS(Cart)=  0.00017498 RMS(Int)=  0.04281984
 Iteration 73 RMS(Cart)=  0.00017438 RMS(Int)=  0.04276829
 Iteration 74 RMS(Cart)=  0.00017377 RMS(Int)=  0.04271693
 Iteration 75 RMS(Cart)=  0.00017318 RMS(Int)=  0.04266574
 Iteration 76 RMS(Cart)=  0.00017259 RMS(Int)=  0.04261473
 Iteration 77 RMS(Cart)=  0.00017200 RMS(Int)=  0.04256389
 Iteration 78 RMS(Cart)=  0.00017142 RMS(Int)=  0.04251323
 Iteration 79 RMS(Cart)=  0.00017083 RMS(Int)=  0.04246273
 Iteration 80 RMS(Cart)=  0.00017025 RMS(Int)=  0.04241242
 Iteration 81 RMS(Cart)=  0.00016968 RMS(Int)=  0.04236227
 Iteration 82 RMS(Cart)=  0.00016911 RMS(Int)=  0.04231229
 Iteration 83 RMS(Cart)=  0.00016854 RMS(Int)=  0.04226248
 Iteration 84 RMS(Cart)=  0.00016797 RMS(Int)=  0.04221283
 Iteration 85 RMS(Cart)=  0.00016740 RMS(Int)=  0.04216336
 Iteration 86 RMS(Cart)=  0.00016685 RMS(Int)=  0.04211405
 Iteration 87 RMS(Cart)=  0.00016629 RMS(Int)=  0.04206491
 Iteration 88 RMS(Cart)=  0.00016573 RMS(Int)=  0.04201593
 Iteration 89 RMS(Cart)=  0.00016519 RMS(Int)=  0.04196711
 Iteration 90 RMS(Cart)=  0.00016464 RMS(Int)=  0.04191846
 Iteration 91 RMS(Cart)=  0.00016409 RMS(Int)=  0.04186996
 Iteration 92 RMS(Cart)=  0.00016355 RMS(Int)=  0.04182163
 Iteration 93 RMS(Cart)=  0.00016301 RMS(Int)=  0.04177346
 Iteration 94 RMS(Cart)=  0.00016247 RMS(Int)=  0.04172544
 Iteration 95 RMS(Cart)=  0.00016195 RMS(Int)=  0.04167759
 Iteration 96 RMS(Cart)=  0.00016142 RMS(Int)=  0.04162989
 Iteration 97 RMS(Cart)=  0.00016088 RMS(Int)=  0.04158235
 Iteration 98 RMS(Cart)=  0.00016037 RMS(Int)=  0.04153496
 Iteration 99 RMS(Cart)=  0.00015984 RMS(Int)=  0.04148773
 Iteration100 RMS(Cart)=  0.00015932 RMS(Int)=  0.04144065
 New curvilinear step not converged.
 Iteration  1 RMS(Cart)=  0.25776389 RMS(Int)=  0.03570296
 Iteration  2 RMS(Cart)=  0.11696616 RMS(Int)=  0.00294640
 Iteration  3 RMS(Cart)=  0.00292616 RMS(Int)=  0.00001339
 Iteration  4 RMS(Cart)=  0.00000082 RMS(Int)=  0.00000000
 Iteration  1 RMS(Cart)=  0.00000000 RMS(Int)=  0.00000000
 Variable       Old X    -DE/DX   Delta X   Delta X   Delta X     New X
                                 (Linear)    (Quad)   (Total)
    R1        2.31329  -0.00031   0.00000  -0.00081  -0.00072   2.31256
    R2        9.48643   0.00001   0.00000   0.00000   0.00000   9.48643
    R3        2.31171   0.00029   0.00000   0.00073   0.00065   2.31237
    A1        1.85527   0.00000   0.00000  -0.30000  -0.27000   1.58527
    A2        3.13931   0.00019   0.00000   0.00238   0.00214   3.14145
    D1        3.14159   0.00000   0.00000   0.00003   0.00003  -3.14157
         Item               Value     Threshold  Converged?
 Maximum Force            0.000307     0.000450     YES
 RMS     Force            0.000208     0.000300     YES
 Maximum Displacement     0.490196     0.001800     NO 
 RMS     Displacement     0.371741     0.001200     NO 
 Predicted change in Energy=-1.539146D-06
 GradGradGradGradGradGradGradGradGradGradGradGradGradGradGradGradGradGrad

 1\1\GINC-IRIS087\Freq\UB3LYP\6-311++G(3df,2p)\C1H1N2(2)\U31MHL01\20-Oc
 t-2007\0\\#N Geom=AllCheck Guess=Read SCRF=Check GenChk UB3LYP/6-311++
 G(3df,2p) Freq\\Title Card Required\\0,2\N,-1.1368447414,-0.4536566514
 ,0.\C,-0.7139365489,0.6951103798,0.\N,-0.2939372904,1.8440564348,0.\H,
 2.8979955808,-3.4403711631,0.\\Version=EM64T-G03RevD.02\HF=-148.045192
 8\S2=1.810731\S2-1=0.\S2A=0.960023\RMSD=0.000e+00\RMSF=2.192e-04\ZeroP
 oint=0.0085207\Thermal=0.0128329\Dipole=0.0009097,-0.0027334,0.\Dipole
 Deriv=-0.1014467,0.2822183,0.0000014,0.2793081,0.5618974,0.0000005,0.0
 000023,-0.0000078,-0.2029006,0.2037506,-0.563443,-0.0000032,-0.5578628
 ,-1.1237413,-0.0000029,-0.0000044,0.0000114,0.4066711,-0.1023506,0.280
 6844,0.0000018,0.2780731,0.5624993,0.0000024,0.0000021,-0.0000036,-0.2
 038479,0.0000466,0.0005403,0.,0.0004816,-0.0006554,0.,0.,0.,0.0000774\
 Polar=22.0407777,6.4425622,38.3783319,0.0000503,0.0000527,19.1118452\P
 G=CS [SG(C1H1N2)]\NImag=1\\0.08851857,0.19710032,0.55152194,0.,0.00000
 029,0.01597428,-0.07435989,-0.11540759,-0.00000006,0.14821451,-0.11505
 687,-0.34426553,-0.00000062,0.23096127,0.69294438,0.00000002,-0.000000
 40,-0.03184676,0.00000004,0.00000088,0.06345665,-0.01415923,-0.0816802
 7,0.00000005,-0.07386219,-0.11592173,-0.00000006,0.08802602,-0.0820383
 1,-0.20726639,0.00000033,-0.11555082,-0.34866175,-0.00000048,0.1975971
 1,0.55591977,-0.00000003,0.00000011,0.01587160,0.00000002,-0.00000026,
 -0.03160986,0.,0.00000015,0.01573802,0.00000055,-0.00001246,0.,0.00000
 757,0.00001734,0.,-0.00000460,-0.00000799,0.,-0.00000353,-0.00000515,0
 .00000997,0.,-0.00000286,-0.00001710,0.,0.00000490,0.00000837,0.,0.000
 00312,-0.00000124,0.,0.,0.00000087,0.,0.,-0.00000004,0.,0.,0.00000024,
 0.,0.,-0.00000107\\-0.00017849,-0.00026350,0.,0.00036169,0.00050319,0.
 ,-0.00017867,-0.00024356,0.,-0.00000453,0.00000386,0.\\\@


 ONE OF THE BENEFITS OF A COLLEGE EDUCATION
 IS TO SHOW THE BOY ITS LITTLE AVAIL 
                                    EMERSON IN 'CULTURE'
 Job cpu time:  0 days  0 hours  1 minutes  9.9 seconds.
 File lengths (MBytes):  RWF=     54 Int=      0 D2E=      0 Chk=      7 Scr=      1
 Normal termination of Gaussian 03 at Sat Oct 20 05:31:37 2007.
